Process 0 of 1 is on gollum406.lsa.umich.edu - thread support 0
initial socket setup ...start
initial socket setup ...done 
now start server 0 ... 
 Q-Chem 4.3.0 for Intel X86 EM64T Linux

 Parts of Q-Chem use Armadillo 5.200.1 (Boston Tea Smuggler).
 http://arma.sourceforge.net/

 Q-Chem begins on Sat Jun 10 00:20:48 2017  

Host: gollum406.lsa.umich.edu
0

     Scratch files written to /tmp/776267246.satyr/qchem28789//
 Parallel job on  1  processors

Checking the input file for inconsistencies... 	...done.

--------------------------------------------------------------
User input:
--------------------------------------------------------------

$rem
 JOBTYPE             FREQ
 EXCHANGE	     B3LYP
 SCF_ALGORITHM       diis
 SCF_MAX_CYCLES      300
 BASIS               6-31G**
 GEOM_OPT_MAX_CYCLES 300
 scf_convergence     8
 SYM_IGNORE          TRUE
 SYMMETRY            FALSE
 molden_format       TRUE
$end

$molecule
0 1
  C     -3.94546258      1.59227337      0.13404259
  C     -4.47307920      0.67846594      1.07887899
  C     -4.24794328     -0.68936656      0.94523758
  C     -3.48409687     -1.06251430     -0.16554170
  C     -2.93357218     -0.19501650     -1.11784270
  C     -3.18036137      1.18394266     -0.95494132
  H     -2.78763490      1.91478161     -1.65519437
  H     -4.14485646      2.65054176      0.27132842
  H     -5.05632165      1.05412156      1.91509764
  C     -4.65240324     -1.80005075      1.79384016
  C     -4.33029057     -3.07108220      1.47178262
  C     -3.59755524     -3.51816426      0.21783706
  H     -5.20856269     -1.60215113      2.70628453
  H     -4.62273530     -3.89955235      2.10683093
  S     -4.79515564     -4.53059619     -0.84082094
  N     -2.52550038     -4.46004983      0.51189915
  C     -3.53847740     -5.73097749     -1.18958932
  C     -2.40037840     -5.51885971     -0.39165357
  C     -2.24112857     -1.09140918     -2.00177782
  N     -3.12327820     -2.33139441     -0.48798699
  N     -2.36476520     -2.35457858     -1.62553774
  H     -1.66250262     -0.85690938     -2.88542167
  C     -1.29933923     -6.36588760     -0.52623889
  C     -3.59706298     -6.77531678     -2.10032326
  C     -2.49718469     -7.63556144     -2.21899817
  C     -1.36270857     -7.42632313     -1.43846926
  H     -4.48141610     -6.92149878     -2.71273535
  H     -0.40279899     -6.20863869      0.06321666
  H     -0.50649596     -8.08665175     -1.53921938
  H     -2.53192428     -8.45844574     -2.92589760
  C     -1.36026409     -3.95339690      1.21993930
  H     -0.88469027     -4.77101893      1.76911921
  H     -1.68155662     -3.20507045      1.94738739
  H     -0.62184426     -3.49962586      0.54510782
$end
--------------------------------------------------------------
 ----------------------------------------------------------------
             Standard Nuclear Orientation (Angstroms)
    I     Atom           X                Y                Z
 ----------------------------------------------------------------
    1      C      -3.9454625800     1.5922733700     0.1340425900
    2      C      -4.4730792000     0.6784659400     1.0788789900
    3      C      -4.2479432800    -0.6893665600     0.9452375800
    4      C      -3.4840968700    -1.0625143000    -0.1655417000
    5      C      -2.9335721800    -0.1950165000    -1.1178427000
    6      C      -3.1803613700     1.1839426600    -0.9549413200
    7      H      -2.7876349000     1.9147816100    -1.6551943700
    8      H      -4.1448564600     2.6505417600     0.2713284200
    9      H      -5.0563216500     1.0541215600     1.9150976400
   10      C      -4.6524032400    -1.8000507500     1.7938401600
   11      C      -4.3302905700    -3.0710822000     1.4717826200
   12      C      -3.5975552400    -3.5181642600     0.2178370600
   13      H      -5.2085626900    -1.6021511300     2.7062845300
   14      H      -4.6227353000    -3.8995523500     2.1068309300
   15      S      -4.7951556400    -4.5305961900    -0.8408209400
   16      N      -2.5255003800    -4.4600498300     0.5118991500
   17      C      -3.5384774000    -5.7309774900    -1.1895893200
   18      C      -2.4003784000    -5.5188597100    -0.3916535700
   19      C      -2.2411285700    -1.0914091800    -2.0017778200
   20      N      -3.1232782000    -2.3313944100    -0.4879869900
   21      N      -2.3647652000    -2.3545785800    -1.6255377400
   22      H      -1.6625026200    -0.8569093800    -2.8854216700
   23      C      -1.2993392300    -6.3658876000    -0.5262388900
   24      C      -3.5970629800    -6.7753167800    -2.1003232600
   25      C      -2.4971846900    -7.6355614400    -2.2189981700
   26      C      -1.3627085700    -7.4263231300    -1.4384692600
   27      H      -4.4814161000    -6.9214987800    -2.7127353500
   28      H      -0.4027989900    -6.2086386900     0.0632166600
   29      H      -0.5064959600    -8.0866517500    -1.5392193800
   30      H      -2.5319242800    -8.4584457400    -2.9258976000
   31      C      -1.3602640900    -3.9533969000     1.2199393000
   32      H      -0.8846902700    -4.7710189300     1.7691192100
   33      H      -1.6815566200    -3.2050704500     1.9473873900
   34      H      -0.6218442600    -3.4996258600     0.5451078200
 ----------------------------------------------------------------
 Nuclear Repulsion Energy =  1748.9135418836 hartrees
 There are       76 alpha and       76 beta electrons
 Requested basis set is 6-31G(d,p)
 There are 124 shells and 384 basis functions

 Total QAlloc Memory Limit   2000 MB
 Mega-Array Size        61 MB
 MEM_STATIC part        62 MB
 length of FILE_MO_COEFS: 0 
 A cutoff of  1.0D-11 yielded   4825 shell pairs
 There are     50771 function pairs
 
 -------------------------------------------------------
 OpenMP Integral Computing Module                       
 Release: version 1.0, May 2013, Q-Chem Inc. Pittsburgh 
 -------------------------------------------------------
 Integral Job Info:
 Integral job number is                      11
 Integral operator is                         1
 short-range coefficients                     0
 long-range coefficients              100000000
 Omega coefficients                           0
 if combine SR and LR in K                    0
 Integral screening is                        0
 Integral computing path is                   2
 max size of driver memory is            800000
 size of driver memory is                593474
 size of scratch memory is             15166112
 max col of scratch BK array               1296
 max len of scratch array in speh3          155
 max len of scratch index in speh4           18
 max int batch size is                      520
 min int batch size is                       52
 fixed nKL is                                52
 max L of basis functions is                  2
 order of int derivative is                   0
 number of shells is                        124
 number of basis is                         384
 number of cartesian basis is               384
 number of contracted shell pairs          4825
 number of primitive shell pairs          15744
 maxK2 (contraction) of shell pair           36
 max number of K2 of shell pair               1
 max number of CS2 of shell pair            493
 max number of PS2 of shell pair           2940
 mem total for path MDJ                  116056
 -------------------------------------------------------
 Smallest overlap matrix eigenvalue = 3.32E-04
 Guess from superposition of atomic densities
 Warning:  Energy on first SCF cycle will be non-variational
 A restricted hybrid HF-DFT SCF calculation will be
 performed using Pulay DIIS extrapolation
 Exchange:     0.2000 Hartree-Fock + 0.0800 Slater + 0.7200 B88
 Correlation:  0.1900 VWN1RPA + 0.8100 LYP
 Using SG-1 standard quadrature grid
 SCF converges when DIIS error is below 1.0E-08
 ---------------------------------------
  Cycle       Energy         DIIS Error
 ---------------------------------------
    1   -1223.5078022052      3.98E-02
    2   -1217.8090994071      3.62E-03
    3   -1217.5832652449      5.06E-03
    4   -1218.0205348701      1.62E-03
    5   -1218.0693494627      4.57E-04
    6   -1218.0728949111      1.62E-04
    7   -1218.0733201865      5.97E-05
    8   -1218.0733740709      1.93E-05
    9   -1218.0733805641      2.26E-06
   10   -1218.0733806209      1.45E-06
   11   -1218.0733806613      4.03E-07
   12   -1218.0733806634      1.30E-07
   13   -1218.0733806638      4.60E-08
   14   -1218.0733806638      1.78E-08
   15   -1218.0733806628      4.75E-09 Convergence criterion met
 ---------------------------------------
 SCF time:  CPU 1083.21 s  wall 1086.87 s
 SCF   energy in the final basis set = -1218.0733806628
 Total energy in the final basis set = -1218.0733806628
 
 --------------------------------------------------------------
 
                    Orbital Energies (a.u.)
 --------------------------------------------------------------
 
 Alpha MOs
 -- Occupied --
-88.883 -14.410 -14.364 -14.362 -10.313 -10.225 -10.225 -10.220
-10.220 -10.215 -10.211 -10.210 -10.209 -10.207 -10.206 -10.199
-10.198 -10.186 -10.182 -10.181 -10.176  -7.944  -5.909  -5.906
 -5.899  -1.058  -0.969  -0.880  -0.860  -0.842  -0.794  -0.793
 -0.766  -0.760  -0.739  -0.707  -0.691  -0.657  -0.641  -0.616
 -0.611  -0.589  -0.585  -0.544  -0.538  -0.502  -0.497  -0.492
 -0.487  -0.472  -0.459  -0.453  -0.446  -0.437  -0.434  -0.424
 -0.418  -0.408  -0.398  -0.389  -0.374  -0.371  -0.366  -0.362
 -0.353  -0.349  -0.326  -0.314  -0.297  -0.293  -0.286  -0.268
 -0.249  -0.221  -0.216  -0.189
 -- Virtual --
 -0.061  -0.008   0.007   0.011   0.023   0.024   0.059   0.090
  0.100   0.108   0.111   0.131   0.134   0.145   0.148   0.157
  0.160   0.162   0.166   0.169   0.174   0.183   0.189   0.199
  0.207   0.208   0.216   0.233   0.241   0.258   0.264   0.277
  0.282   0.305   0.308   0.314   0.336   0.344   0.347   0.370
  0.389   0.397   0.407   0.420   0.421   0.454   0.462   0.469
  0.481   0.507   0.513   0.521   0.533   0.537   0.544   0.548
  0.552   0.561   0.565   0.571   0.576   0.581   0.585   0.592
  0.597   0.603   0.605   0.608   0.614   0.618   0.621   0.626
  0.636   0.637   0.652   0.663   0.667   0.675   0.691   0.703
  0.713   0.720   0.743   0.760   0.779   0.782   0.785   0.803
  0.807   0.810   0.815   0.821   0.823   0.826   0.834   0.838
  0.844   0.855   0.858   0.880   0.883   0.895   0.905   0.910
  0.920   0.927   0.931   0.939   0.945   0.950   0.963   0.966
  0.990   1.006   1.015   1.027   1.034   1.043   1.060   1.069
  1.090   1.109   1.122   1.140   1.145   1.151   1.180   1.200
  1.207   1.242   1.244   1.259   1.265   1.277   1.282   1.303
  1.311   1.321   1.345   1.361   1.363   1.376   1.384   1.390
  1.400   1.403   1.407   1.420   1.428   1.442   1.450   1.457
  1.473   1.487   1.516   1.547   1.553   1.560   1.597   1.612
  1.704   1.714   1.745   1.759   1.761   1.774   1.794   1.800
  1.810   1.820   1.828   1.833   1.844   1.868   1.881   1.887
  1.899   1.900   1.917   1.923   1.928   1.932   1.939   1.944
  1.973   1.986   1.995   2.000   2.005   2.010   2.027   2.031
  2.035   2.053   2.068   2.070   2.080   2.098   2.105   2.123
  2.126   2.168   2.177   2.185   2.198   2.217   2.230   2.255
  2.261   2.264   2.283   2.291   2.295   2.306   2.315   2.341
  2.373   2.380   2.387   2.389   2.393   2.399   2.406   2.411
  2.440   2.462   2.468   2.478   2.488   2.502   2.520   2.524
  2.533   2.534   2.547   2.562   2.568   2.583   2.595   2.606
  2.615   2.622   2.639   2.653   2.655   2.677   2.682   2.698
  2.710   2.721   2.734   2.746   2.748   2.750   2.763   2.796
  2.808   2.871   2.881   2.908   2.931   2.944   2.964   2.981
  3.018   3.059   3.100   3.141   3.149   3.190   3.200   3.220
  3.223   3.251   3.261   3.292   3.341   3.349   3.369   3.396
  3.440   3.458   3.480   3.529   3.638   3.809   3.835   3.879
  3.985   4.098   4.109   4.129   4.144   4.158   4.177   4.227
  4.258   4.291   4.333   4.401   4.424   4.465   4.498   4.516
  4.554   4.722   4.821   4.928
 --------------------------------------------------------------
 
          Ground-State Mulliken Net Atomic Charges

     Atom                 Charge (a.u.)
  ----------------------------------------
      1 C                    -0.082325
      2 C                    -0.178693
      3 C                     0.165628
      4 C                     0.308714
      5 C                     0.019780
      6 C                    -0.152338
      7 H                     0.096119
      8 H                     0.088218
      9 H                     0.091668
     10 C                    -0.079821
     11 C                    -0.100669
     12 C                     0.098274
     13 H                     0.100693
     14 H                     0.119419
     15 S                     0.168516
     16 N                    -0.495924
     17 C                    -0.138852
     18 C                     0.375078
     19 C                     0.082938
     20 N                    -0.435683
     21 N                    -0.264597
     22 H                     0.112600
     23 C                    -0.115432
     24 C                    -0.124943
     25 C                    -0.079711
     26 C                    -0.104982
     27 H                     0.090801
     28 H                     0.079238
     29 H                     0.080983
     30 H                     0.079112
     31 C                    -0.178133
     32 H                     0.124094
     33 H                     0.121193
     34 H                     0.129038
  ----------------------------------------
  Sum of atomic charges =    -0.000000

 -----------------------------------------------------------------
                    Cartesian Multipole Moments
 -----------------------------------------------------------------
    Charge (ESU x 10^10)
                 0.0000
    Dipole Moment (Debye)
         X       0.7013      Y       2.2152      Z       2.0647
       Tot       3.1083
    Quadrupole Moments (Debye-Ang)
        XX    -128.3149     XY     -12.5334     YY    -130.2502
        XZ      -8.4680     YZ      -5.7358     ZZ    -121.7571
    Octopole Moments (Debye-Ang^2)
       XXX    1226.9301    XXY     444.5408    XYY     448.9554
       YYY    1233.2691    XXZ      89.0789    XYZ       2.6956
       YYZ      34.1987    XZZ     382.5641    YZZ     394.9754
       ZZZ     145.4237
    Hexadecapole Moments (Debye-Ang^3)
      XXXX   -9063.7143   XXXY   -3604.4536   XXYY   -3876.6642
      XYYY   -3762.1380   YYYY  -13575.3730   XXXZ    -503.5784
      XXYZ    -275.1756   XYYZ       6.6326   YYYZ    -596.6827
      XXZZ   -1598.3629   XYZZ   -1075.4262   YYZZ   -2378.8207
      XZZZ    -328.2834   YZZZ    -922.2511   ZZZZ   -1347.3996
 -----------------------------------------------------------------
 Calculating MO derivatives via CPSCF
   1         3         102      0.242017    0.044771
   2         3         102      0.024216    0.004242
   3         3         102      0.001847    0.000372
   4        81          24      0.000069    0.000022
   5       104           1      0.000001    0.000001
   6       105           0      0.000000    0.000000    Roots Converged
 Calculating analytic Hessian of the SCF energy
 Polarizability Matrix (a.u.)
            1           2           3
    1-163.2442153  32.3928086  23.4801029
    2  32.3928086-316.9317832 -39.7305467
    3  23.4801029 -39.7305467-173.8727683
 
 Direct stationary perturbation theory relativistic correction:
 
 rels  =       0.796347919249
 relv  =      -3.542753547553
 rel2e =       1.358275208791
 E_rel =      -1.388130419512
 
 Hessian of the SCF Energy
            1           2           3           4           5           6
    1   0.2933406  -0.0636103  -0.2428365  -0.1020419  -0.0172975   0.0680991
    2  -0.0636103   0.7129333   0.0043668  -0.0529951  -0.1940531   0.1017151
    3  -0.2428365   0.0043668   0.4922675   0.0734298   0.0472051  -0.1790876
    4  -0.1020419  -0.0529951   0.0734298   0.3103246  -0.0645883  -0.2623363
    5  -0.0172975  -0.1940531   0.0472051  -0.0645883   0.6675670   0.0152724
    6   0.0680991   0.1017151  -0.1790876  -0.2623363   0.0152724   0.5321382
    7   0.0185846  -0.0037077  -0.0173840  -0.0859278   0.0340369   0.0361763
    8  -0.0270525  -0.0459110   0.0491641   0.0565543  -0.3349949  -0.0435856
    9  -0.0142319   0.0142375   0.0261932   0.0330585  -0.0089565  -0.1089103
   10  -0.0184529  -0.0068406   0.0210570   0.0016654   0.0396520   0.0000211
   11  -0.0022462   0.0002684   0.0024586   0.0245135  -0.0191984  -0.0338582
   12   0.0204814   0.0090302  -0.0375325   0.0018023  -0.0557567   0.0112220
   13  -0.0022829   0.0221223   0.0103368  -0.0030933   0.0005838  -0.0037400
   14   0.0436809  -0.0106436  -0.0631086  -0.0099272  -0.0463384   0.0214185
   15   0.0070746  -0.0304614   0.0007170  -0.0021419   0.0051974  -0.0030625
   16  -0.1461868   0.0572715   0.1240230  -0.0107168  -0.0283009   0.0289049
   17   0.0226412  -0.1439303  -0.0211010  -0.0013651   0.0498214  -0.0046770
   18   0.1292638  -0.0732874  -0.2406866   0.0248429   0.0362137  -0.0376266
   19  -0.0023238  -0.0129792   0.0101474   0.0040661   0.0023814   0.0054535
   20   0.0042307   0.0102541  -0.0074304   0.0018676   0.0003774  -0.0016674
   21   0.0075769   0.0182843  -0.0111046   0.0055146  -0.0024621   0.0000157
   22  -0.0503831   0.0521725   0.0181117   0.0037189  -0.0126178  -0.0021752
   23   0.0523432  -0.3265376  -0.0333948   0.0047395  -0.0156802  -0.0046026
   24   0.0181367  -0.0331507  -0.0551728  -0.0048750   0.0216553   0.0051224
   25  -0.0032480   0.0052081   0.0075634  -0.1225830   0.0537154   0.1258870
   26  -0.0117193   0.0108412   0.0165893   0.0537545  -0.0934311  -0.0732577
   27   0.0100708  -0.0095841  -0.0116544   0.1258410  -0.0724855  -0.2169764
   28   0.0059867   0.0027190   0.0019933   0.0051895   0.0008258  -0.0064797
   29   0.0066148  -0.0003210  -0.0087010  -0.0105698  -0.0372961   0.0228507
   30   0.0012530  -0.0032500   0.0057470  -0.0047397   0.0047287   0.0079668
   31   0.0014941  -0.0001741  -0.0018222   0.0002064  -0.0042927   0.0032972
   32  -0.0019079  -0.0021212   0.0033910  -0.0017618   0.0091559   0.0016148
   33  -0.0005811   0.0007414   0.0012095   0.0030720   0.0041051  -0.0036212
   34  -0.0011645   0.0006276   0.0013744  -0.0005279   0.0010214   0.0003938
   35   0.0006901   0.0018534  -0.0013713  -0.0006935  -0.0037137   0.0016974
   36   0.0013227  -0.0008457  -0.0022992   0.0008399  -0.0023445  -0.0011039
   37  -0.0001697  -0.0001580   0.0000108  -0.0006877   0.0003787  -0.0011028
   38   0.0000865  -0.0001388  -0.0001870  -0.0002261   0.0019802  -0.0002717
   39   0.0000126   0.0002387  -0.0001137  -0.0009916  -0.0010225   0.0005252
   40  -0.0006663   0.0000584  -0.0004853   0.0006163   0.0000350  -0.0000690
   41   0.0000848  -0.0003781  -0.0001994  -0.0006858  -0.0002269   0.0011918
   42  -0.0005150  -0.0000775  -0.0000904  -0.0000333   0.0000370   0.0006173
   43  -0.0000532  -0.0004434   0.0001094   0.0001456   0.0006745  -0.0001293
   44  -0.0010108  -0.0005567   0.0014025   0.0002681   0.0021552  -0.0004720
   45  -0.0009365  -0.0002153   0.0013251   0.0000740   0.0018189  -0.0002464
   46   0.0004843  -0.0000217  -0.0007597   0.0001313  -0.0007707   0.0000622
   47  -0.0003032  -0.0004998   0.0009120  -0.0000129   0.0015290  -0.0005685
   48  -0.0004830   0.0001111   0.0008754  -0.0001255   0.0008382   0.0002888
   49  -0.0005535  -0.0001522   0.0007980   0.0000524   0.0009532  -0.0002068
   50  -0.0000793  -0.0000681   0.0002040   0.0000963   0.0002338  -0.0001498
   51  -0.0002661   0.0000887   0.0004149   0.0000253   0.0003228   0.0000175
   52   0.0002035   0.0000161  -0.0003254   0.0000469  -0.0003330   0.0000491
   53  -0.0000655   0.0000395  -0.0000295   0.0000184  -0.0000685  -0.0000497
   54   0.0002142   0.0001515  -0.0005198  -0.0000035  -0.0006201   0.0001152
   55   0.0090220  -0.0001172  -0.0054427  -0.0013542  -0.0063066   0.0024382
   56  -0.0104614  -0.0033190   0.0172407   0.0042242   0.0111431  -0.0081724
   57  -0.0037328   0.0014194   0.0110725   0.0008995   0.0077467  -0.0028850
   58  -0.0029507   0.0021806   0.0030123   0.0030315   0.0011489   0.0017580
   59  -0.0029671  -0.0066178   0.0052743  -0.0013229   0.0126750   0.0009902
   60   0.0045259  -0.0011341  -0.0074092   0.0022389  -0.0051760   0.0016940
   61   0.0013019  -0.0013269  -0.0027428  -0.0020560  -0.0006789   0.0037526
   62   0.0087394  -0.0008992  -0.0132463  -0.0017561  -0.0121610   0.0045226
   63  -0.0044879   0.0018979   0.0058695   0.0037956   0.0035950  -0.0060834
   64  -0.0001460   0.0001140   0.0000952  -0.0001155   0.0000840  -0.0001754
   65  -0.0000150  -0.0001885   0.0000373  -0.0000711  -0.0000021   0.0000682
   66   0.0000805  -0.0001442  -0.0001711  -0.0001436  -0.0001312   0.0000030
   67   0.0000119   0.0000122  -0.0000314   0.0000055  -0.0000610  -0.0000047
   68   0.0000115   0.0000065   0.0000388  -0.0000188   0.0000318   0.0000239
   69  -0.0000574  -0.0000314   0.0001269  -0.0000052   0.0001514  -0.0000299
   70   0.0002205   0.0000419  -0.0003239  -0.0000243  -0.0003561   0.0000728
   71  -0.0000549   0.0000139   0.0000499  -0.0000145   0.0000828   0.0000041
   72   0.0000246  -0.0000076  -0.0000175  -0.0000045  -0.0000178  -0.0000038
   73   0.0000215   0.0000242  -0.0000316  -0.0000109  -0.0000499   0.0000232
   74  -0.0000357   0.0000022   0.0000655  -0.0000011   0.0000569   0.0000062
   75  -0.0000470  -0.0000252   0.0000880   0.0000126   0.0001079  -0.0000309
   76   0.0000357   0.0000099  -0.0000590   0.0000054  -0.0000661   0.0000125
   77  -0.0000548  -0.0000045   0.0000544  -0.0000040   0.0000624  -0.0000073
   78  -0.0000490  -0.0000189   0.0000608   0.0000146   0.0000728  -0.0000298
   79  -0.0000150  -0.0000080   0.0000259   0.0000014   0.0000323  -0.0000067
   80   0.0000134   0.0000008  -0.0000120   0.0000008  -0.0000126   0.0000015
   81   0.0000255   0.0000131  -0.0000352  -0.0000063  -0.0000452   0.0000179
   82   0.0000139   0.0000037  -0.0000102   0.0000034  -0.0000138   0.0000052
   83  -0.0000185  -0.0000062   0.0000240   0.0000010   0.0000277  -0.0000103
   84   0.0000233   0.0000083  -0.0000380  -0.0000015  -0.0000443   0.0000097
   85   0.0000090   0.0000017  -0.0000127   0.0000017  -0.0000175  -0.0000005
   86  -0.0000223  -0.0000112   0.0000359   0.0000009   0.0000468  -0.0000100
   87   0.0000013   0.0000043  -0.0000007  -0.0000029  -0.0000049   0.0000052
   88   0.0000173   0.0000005  -0.0000212  -0.0000004  -0.0000237   0.0000024
   89  -0.0000337  -0.0000116   0.0000541   0.0000047   0.0000641  -0.0000134
   90  -0.0000006   0.0000014  -0.0000029  -0.0000044   0.0000031   0.0000066
   91  -0.0003102  -0.0000870   0.0004827  -0.0000412   0.0005411  -0.0000820
   92  -0.0001368  -0.0000196   0.0001810  -0.0000386   0.0001486  -0.0000500
   93   0.0001087  -0.0000807  -0.0001163  -0.0000388  -0.0001333  -0.0000827
   94   0.0000791   0.0000116  -0.0001135   0.0000048  -0.0001283   0.0000203
   95   0.0000020  -0.0000210  -0.0000201   0.0000112   0.0000266   0.0000077
   96  -0.0000548  -0.0000037   0.0000685  -0.0000038   0.0000934  -0.0000017
   97  -0.0000873   0.0000175   0.0001259  -0.0000601   0.0001336   0.0000458
   98  -0.0000326   0.0000148   0.0000426  -0.0000001   0.0000015   0.0000124
   99  -0.0000369  -0.0000094   0.0000501   0.0000026   0.0000929  -0.0000038
  100   0.0002089   0.0000081  -0.0002948   0.0000238  -0.0002951   0.0000331
  101  -0.0000131   0.0000297   0.0000096  -0.0000022  -0.0000099   0.0000263
  102   0.0000209   0.0000175  -0.0000336  -0.0000061  -0.0000572   0.0000206
            7           8           9          10          11          12
    1   0.0185846  -0.0270525  -0.0142319  -0.0184529  -0.0022462   0.0204814
    2  -0.0037077  -0.0459110   0.0142375  -0.0068406   0.0002684   0.0090302
    3  -0.0173840   0.0491641   0.0261932   0.0210570   0.0024586  -0.0375325
    4  -0.0859278   0.0565543   0.0330585   0.0016654   0.0245135   0.0018023
    5   0.0340369  -0.3349949  -0.0089565   0.0396520  -0.0191984  -0.0557567
    6   0.0361763  -0.0435856  -0.1089103   0.0000211  -0.0338582   0.0112220
    7   0.2988707  -0.0528132  -0.2331196  -0.1423207   0.0332489   0.1167170
    8  -0.0528132   0.7303378  -0.0169196   0.0200534  -0.1202647  -0.0226925
    9  -0.2331196  -0.0169196   0.5096547   0.1200086  -0.0439471  -0.2373834
   10  -0.1423207   0.0200534   0.1200086   0.3687802  -0.0579868  -0.3278576
   11   0.0332489  -0.1202647  -0.0439471  -0.0579868   0.6937244   0.0048760
   12   0.1167170  -0.0226925  -0.2373834  -0.3278576   0.0048760   0.6362911
   13  -0.0034390  -0.0082272   0.0142475  -0.1219860  -0.0514597   0.0748525
   14  -0.0201374   0.0427474   0.0250794  -0.0337158  -0.1831542   0.0656716
   15   0.0167220   0.0062203  -0.0213826   0.0724548   0.0935164  -0.1971612
   16  -0.0107387   0.0193333   0.0088499   0.0181881  -0.0088899  -0.0198834
   17   0.0131740  -0.0255535  -0.0172228  -0.0214829  -0.0380265   0.0396474
   18   0.0095826  -0.0257687  -0.0136433  -0.0179917   0.0192233   0.0279527
   19  -0.0007155   0.0004463  -0.0001882   0.0042386   0.0017556   0.0024916
   20   0.0004313  -0.0006222  -0.0006858   0.0023317  -0.0037887  -0.0019810
   21  -0.0003716  -0.0005805  -0.0001553   0.0026413  -0.0011360   0.0022910
   22   0.0027942  -0.0010217   0.0040711  -0.0006890  -0.0002182   0.0001870
   23  -0.0015626  -0.0005199   0.0033647  -0.0003346   0.0005670   0.0003624
   24   0.0040866   0.0025718  -0.0013594   0.0002392   0.0001218  -0.0009669
   25   0.0004399   0.0007713   0.0039286   0.0051524   0.0011620   0.0025263
   26   0.0172994  -0.0057852  -0.0251825   0.0006835  -0.0059475   0.0009877
   27   0.0016049  -0.0003019   0.0006929   0.0023775   0.0003159   0.0031919
   28  -0.0877705  -0.0307375   0.0495763  -0.0052924  -0.0143274   0.0210381
   29  -0.0265843  -0.1742653   0.0613124  -0.0110030   0.0162191   0.0160104
   30   0.0498326   0.0710414  -0.1539393   0.0197484   0.0208129  -0.0285832
   31   0.0110191  -0.0022756  -0.0069387  -0.0009855   0.0004174   0.0029632
   32  -0.0023273  -0.0500047   0.0132870   0.0041168  -0.0048781  -0.0048572
   33  -0.0072170   0.0163110   0.0148074   0.0019053   0.0032946  -0.0027816
   34  -0.0057364  -0.0018186   0.0000223   0.0052176  -0.0051366  -0.0127773
   35  -0.0031390   0.0072534   0.0030975  -0.0035265  -0.0387492   0.0069182
   36   0.0002024   0.0037539  -0.0065679  -0.0127420   0.0133634   0.0113820
   37  -0.0012634   0.0021250   0.0064936   0.0020436  -0.0012168   0.0013479
   38  -0.0126549   0.0088746   0.0202350  -0.0006776  -0.0049078   0.0025044
   39   0.0088772  -0.0057859  -0.0110522   0.0012692   0.0039048  -0.0003159
   40   0.0070256   0.0023028   0.0048256  -0.0003898   0.0005915  -0.0000679
   41   0.0029491  -0.0029571  -0.0027324   0.0003877  -0.0000182  -0.0006146
   42   0.0046454  -0.0016900   0.0025296   0.0001811  -0.0014389  -0.0002493
   43   0.0004776  -0.0011791  -0.0005981  -0.0033526   0.0029078   0.0002575
   44   0.0006191  -0.0030509  -0.0008338  -0.0047328   0.0047115   0.0001258
   45  -0.0001286  -0.0025604   0.0004539  -0.0003482  -0.0004050  -0.0002485
   46  -0.0004658   0.0007984   0.0000986   0.0000967  -0.0007096  -0.0007839
   47   0.0010878  -0.0017126  -0.0001974  -0.0003282   0.0045325   0.0084341
   48   0.0001413  -0.0007044   0.0005281   0.0006655  -0.0022379  -0.0025943
   49   0.0003147  -0.0010299  -0.0002015  -0.0008857   0.0018655   0.0005271
   50  -0.0003116  -0.0006223   0.0004921   0.0003607  -0.0005954   0.0001030
   51  -0.0000892  -0.0003020  -0.0001496   0.0000060  -0.0007756   0.0004445
   52  -0.0001763   0.0002454  -0.0001235   0.0000149   0.0000059  -0.0002252
   53  -0.0001246   0.0000626   0.0003488   0.0003447  -0.0009359  -0.0013435
   54  -0.0003087   0.0005770   0.0004314   0.0005514  -0.0017812  -0.0027317
   55  -0.0006102   0.0005275   0.0042918  -0.0095610  -0.0108708   0.0316029
   56   0.0016311  -0.0092991  -0.0009934   0.0058036   0.0324348  -0.0131528
   57   0.0040647   0.0007664  -0.0040607   0.0285395   0.0134944  -0.0343447
   58  -0.0084260   0.0206502   0.0074091  -0.0879737   0.0540339   0.0436599
   59   0.0231039  -0.0149179  -0.0311827   0.0416365  -0.2969607  -0.0247270
   60   0.0058265  -0.0270677  -0.0033901   0.0468774  -0.0531962  -0.1110603
   61   0.0075646   0.0026332  -0.0019111  -0.0161378   0.0317176   0.0382118
   62  -0.0044639   0.0003374   0.0078647   0.0229389  -0.0305878  -0.0277595
   63  -0.0003463  -0.0029275   0.0066605   0.0376215  -0.0365655  -0.0377934
   64   0.0005750  -0.0006100   0.0003897   0.0016694   0.0015119   0.0029892
   65   0.0000871   0.0014491  -0.0002446   0.0027505  -0.0047033  -0.0027778
   66   0.0002364   0.0007748   0.0003007   0.0028418  -0.0017780  -0.0001328
   67  -0.0000388  -0.0000213   0.0001184   0.0001398  -0.0003682  -0.0003399
   68   0.0000744   0.0000711  -0.0001243   0.0000524   0.0001132   0.0003766
   69   0.0000786  -0.0001105  -0.0000966   0.0000112   0.0004370   0.0004703
   70  -0.0001255   0.0003215   0.0001076   0.0002459  -0.0004552  -0.0000563
   71   0.0000730  -0.0000069  -0.0000558  -0.0001694   0.0001927  -0.0001915
   72   0.0000617   0.0000436  -0.0000680   0.0000175   0.0003055  -0.0001506
   73   0.0000608   0.0001480  -0.0001143   0.0001109   0.0001293  -0.0001308
   74  -0.0000231  -0.0000544  -0.0000089  -0.0000041  -0.0000908   0.0002398
   75   0.0000299  -0.0000900  -0.0000272  -0.0001043   0.0002362   0.0001612
   76  -0.0000804   0.0000143   0.0000712   0.0000480  -0.0002436  -0.0000822
   77   0.0000108  -0.0000843   0.0000461  -0.0001528  -0.0000437  -0.0000483
   78  -0.0000467  -0.0001447   0.0000773  -0.0000935  -0.0000786   0.0000500
   79   0.0000112  -0.0000242  -0.0000079  -0.0000514   0.0000676   0.0000450
   80  -0.0000021   0.0000162   0.0000043   0.0000026   0.0000146   0.0000111
   81  -0.0000074   0.0000608  -0.0000057   0.0000634  -0.0000581   0.0000003
   82  -0.0000265   0.0000139   0.0000011   0.0000340  -0.0000113  -0.0000115
   83   0.0000131  -0.0000264  -0.0000071   0.0000047   0.0000341   0.0000261
   84  -0.0000155   0.0000349   0.0000202   0.0000105  -0.0000868  -0.0000785
   85  -0.0000082   0.0000138   0.0000092   0.0000254  -0.0000299  -0.0000290
   86   0.0000101  -0.0000478  -0.0000079  -0.0000346   0.0000804   0.0000618
   87   0.0000028   0.0000122  -0.0000020   0.0000041  -0.0000278   0.0000222
   88  -0.0000056   0.0000199   0.0000028   0.0000286  -0.0000042  -0.0000058
   89   0.0000152  -0.0000650  -0.0000113  -0.0000551   0.0000934   0.0000452
   90   0.0000035   0.0000007  -0.0000045  -0.0000256   0.0000094   0.0000088
   91   0.0003458  -0.0003855  -0.0002987   0.0000576   0.0003128   0.0014244
   92   0.0000972  -0.0003318  -0.0000280  -0.0001704  -0.0000468   0.0006442
   93   0.0002874  -0.0002459  -0.0000639   0.0000464   0.0006951   0.0009168
   94  -0.0000582   0.0000579   0.0000404   0.0001380   0.0000554  -0.0002418
   95  -0.0000401   0.0000056  -0.0000157  -0.0001564   0.0003484  -0.0000997
   96   0.0000155  -0.0000032  -0.0000343   0.0000129   0.0000880  -0.0000404
   97  -0.0000249   0.0000003  -0.0000151   0.0001220  -0.0003615  -0.0001534
   98  -0.0000326  -0.0001109   0.0000012   0.0001169  -0.0002573   0.0001111
   99  -0.0000829   0.0000906  -0.0000607  -0.0003265   0.0006096  -0.0002237
  100  -0.0001253   0.0001657   0.0001269   0.0000615   0.0002393  -0.0004789
  101  -0.0000383   0.0000537  -0.0000132   0.0001352  -0.0001792  -0.0001847
  102  -0.0000777   0.0000577   0.0000072   0.0003167  -0.0003920  -0.0000319
           13          14          15          16          17          18
    1  -0.0022829   0.0436809   0.0070746  -0.1461868   0.0226412   0.1292638
    2   0.0221223  -0.0106436  -0.0304614   0.0572715  -0.1439303  -0.0732874
    3   0.0103368  -0.0631086   0.0007170   0.1240230  -0.0211010  -0.2406866
    4  -0.0030933  -0.0099272  -0.0021419  -0.0107168  -0.0013651   0.0248429
    5   0.0005838  -0.0463384   0.0051974  -0.0283009   0.0498214   0.0362137
    6  -0.0037400   0.0214185  -0.0030625   0.0289049  -0.0046770  -0.0376266
    7  -0.0034390  -0.0201374   0.0167220  -0.0107387   0.0131740   0.0095826
    8  -0.0082272   0.0427474   0.0062203   0.0193333  -0.0255535  -0.0257687
    9   0.0142475   0.0250794  -0.0213826   0.0088499  -0.0172228  -0.0136433
   10  -0.1219860  -0.0337158   0.0724548   0.0181881  -0.0214829  -0.0179917
   11  -0.0514597  -0.1831542   0.0935164  -0.0088899  -0.0380265   0.0192233
   12   0.0748525   0.0656716  -0.1971612  -0.0198834   0.0396474   0.0279527
   13   0.2899929  -0.0578392  -0.2082017  -0.0776434   0.0356325   0.0263978
   14  -0.0578392   0.7878036  -0.0123806   0.0226701  -0.3079006   0.0043487
   15  -0.2082017  -0.0123806   0.4564868   0.0282730  -0.0157308  -0.0967950
   16  -0.0776434   0.0226701   0.0282730   0.3068660  -0.0099692  -0.2621220
   17   0.0356325  -0.3079006  -0.0157308  -0.0099692   0.6765332  -0.0673260
   18   0.0263978   0.0043487  -0.0967950  -0.2621220  -0.0673260   0.5349863
   19   0.0054450   0.0035620  -0.0047419  -0.0797535  -0.0659653   0.0764173
   20  -0.0123319  -0.0144727   0.0211508  -0.0673650  -0.1883213   0.1240030
   21  -0.0023543  -0.0032482   0.0066891   0.0765938   0.1223053  -0.1685412
   22   0.0032685   0.0009284   0.0063326  -0.0008448   0.0176661   0.0010173
   23   0.0013348   0.0013416  -0.0010288   0.0002982  -0.0055574   0.0006468
   24   0.0062906  -0.0005297  -0.0017750   0.0036363  -0.0255388   0.0000662
   25  -0.0000531  -0.0001477  -0.0003562   0.0037137  -0.0015752   0.0030168
   26   0.0000063  -0.0009095   0.0001105  -0.0011195  -0.0025606   0.0029483
   27  -0.0004083   0.0005166   0.0002312   0.0030066   0.0036208   0.0003109
   28   0.0016166   0.0017306   0.0036830  -0.0008866   0.0018288   0.0005195
   29   0.0029188   0.0020508  -0.0042050  -0.0021714  -0.0001106   0.0032748
   30   0.0037563  -0.0026350  -0.0005433   0.0011101  -0.0027014  -0.0017118
   31   0.0000951   0.0000894  -0.0007583  -0.0009016   0.0007223   0.0007715
   32   0.0003807  -0.0012494   0.0003363   0.0011453  -0.0005146  -0.0017679
   33  -0.0009001  -0.0010200   0.0014640   0.0002011   0.0004979  -0.0006852
   34   0.0028235   0.0047580  -0.0003460   0.0012834  -0.0018998  -0.0004065
   35   0.0067083  -0.0013398  -0.0087833  -0.0012523  -0.0006637   0.0022433
   36  -0.0014284  -0.0049034   0.0052087  -0.0004491   0.0027751   0.0011863
   37   0.0000968   0.0003697   0.0003308   0.0000640   0.0000292  -0.0000836
   38  -0.0005513   0.0010063   0.0006225   0.0000247   0.0001748  -0.0000475
   39   0.0005270  -0.0009282  -0.0001983  -0.0001026   0.0000430   0.0001406
   40  -0.0002747  -0.0001508  -0.0001267   0.0001106   0.0000847   0.0001593
   41  -0.0000886   0.0001464   0.0000381   0.0000499  -0.0000374  -0.0000412
   42  -0.0000811   0.0002107  -0.0002566   0.0001453  -0.0002828   0.0000246
   43  -0.0006322  -0.0003212   0.0010744   0.0003043   0.0001824  -0.0000556
   44  -0.0011728   0.0006861   0.0026131   0.0008848  -0.0010471  -0.0007787
   45  -0.0003338   0.0013981   0.0003422   0.0005507  -0.0012545  -0.0007914
   46   0.0005123  -0.0003548  -0.0002321  -0.0002270   0.0008507   0.0001666
   47  -0.0017445  -0.0019111   0.0010019  -0.0002435  -0.0003853  -0.0003414
   48  -0.0002040   0.0017505  -0.0002300   0.0005370  -0.0009066  -0.0003316
   49  -0.0005828   0.0004786   0.0010432   0.0003705  -0.0006761  -0.0004214
   50  -0.0000805   0.0002455  -0.0002271   0.0000567  -0.0001497  -0.0001784
   51  -0.0000341   0.0001061   0.0000406   0.0000700  -0.0005434  -0.0001011
   52   0.0000205  -0.0002040  -0.0001067  -0.0001416   0.0003251   0.0001175
   53   0.0006190   0.0010143  -0.0000344   0.0001196  -0.0001266  -0.0000405
   54   0.0008658   0.0004401  -0.0006268   0.0000405   0.0003628   0.0001866
   55  -0.1172636   0.0396665   0.0705591  -0.0048447   0.0111077   0.0001975
   56   0.0373334  -0.1339926  -0.0452412   0.0217598  -0.0283654  -0.0282647
   57   0.0701756  -0.0472236  -0.1608102  -0.0012287  -0.0129527   0.0000722
   58   0.0061596   0.0081161   0.0007764   0.0023581  -0.0053955   0.0014391
   59  -0.0179780  -0.0619410   0.0371426  -0.0003821  -0.0019593   0.0010556
   60   0.0106839  -0.0040151  -0.0064475  -0.0007785   0.0091522   0.0021381
   61   0.0196890   0.0024099   0.0037174   0.0003673   0.0042110   0.0076459
   62   0.0353790  -0.0840218  -0.0358314  -0.0035458   0.0182523   0.0036136
   63  -0.0036403   0.0134056   0.0233084   0.0092301  -0.0082982  -0.0058510
   64  -0.0025608  -0.0051428   0.0054566  -0.0005420  -0.0003701  -0.0005733
   65   0.0087390   0.0108569  -0.0143168  -0.0004827   0.0010189   0.0003968
   66   0.0037443   0.0060519  -0.0056469  -0.0005479   0.0001554  -0.0001788
   67   0.0001593  -0.0000023  -0.0000379   0.0000241   0.0000172  -0.0000151
   68  -0.0001929  -0.0000861   0.0000060  -0.0000356  -0.0000146   0.0000235
   69  -0.0001902   0.0000218   0.0001099   0.0000040  -0.0001057  -0.0000449
   70   0.0002144  -0.0002954  -0.0003456  -0.0001394   0.0003209   0.0001632
   71  -0.0000629   0.0001493   0.0000897   0.0000066  -0.0000605  -0.0000084
   72  -0.0000612   0.0001555   0.0000730  -0.0000059   0.0000179  -0.0000055
   73  -0.0000901   0.0000830   0.0000134  -0.0000233   0.0000137   0.0000210
   74  -0.0000252  -0.0000678  -0.0000326   0.0000074  -0.0000696  -0.0000140
   75  -0.0001446   0.0000185   0.0001027   0.0000253  -0.0000643  -0.0000455
   76   0.0000731  -0.0000802  -0.0001251  -0.0000163   0.0000605   0.0000233
   77   0.0001037   0.0000376   0.0000477   0.0000385  -0.0000700  -0.0000195
   78   0.0000757   0.0000249   0.0000505   0.0000409  -0.0000590  -0.0000366
   79  -0.0000270  -0.0000032   0.0000323   0.0000099  -0.0000195  -0.0000116
   80  -0.0000066  -0.0000186  -0.0000116  -0.0000060   0.0000148   0.0000092
   81   0.0000260  -0.0000420  -0.0000454  -0.0000195   0.0000316   0.0000226
   82  -0.0000058  -0.0000031  -0.0000241  -0.0000061   0.0000151   0.0000055
   83  -0.0000107   0.0000417   0.0000343   0.0000104  -0.0000313  -0.0000123
   84   0.0000278  -0.0000239  -0.0000547  -0.0000117   0.0000362   0.0000175
   85   0.0000097   0.0000153  -0.0000170  -0.0000041   0.0000069   0.0000054
   86  -0.0000332  -0.0000061   0.0000421   0.0000135  -0.0000242  -0.0000210
   87   0.0000097  -0.0000144  -0.0000118  -0.0000036  -0.0000027   0.0000055
   88   0.0000025  -0.0000111  -0.0000128  -0.0000089   0.0000238   0.0000081
   89  -0.0000333   0.0000165   0.0000663   0.0000243  -0.0000429  -0.0000296
   90   0.0000004  -0.0000273  -0.0000057  -0.0000024   0.0000079   0.0000043
   91  -0.0002380  -0.0000221   0.0003736   0.0000668  -0.0005786  -0.0001627
   92  -0.0000551  -0.0001618   0.0000747   0.0000114  -0.0002336  -0.0000481
   93  -0.0003300  -0.0006136   0.0002674  -0.0001084   0.0002142   0.0000178
   94  -0.0000060  -0.0000207  -0.0000793  -0.0000221   0.0001394   0.0000278
   95  -0.0000710  -0.0000228   0.0000147   0.0000168   0.0000625  -0.0000047
   96   0.0000065   0.0001246   0.0000177   0.0000288  -0.0000923  -0.0000209
   97   0.0000572   0.0000639  -0.0000524   0.0000054  -0.0001638  -0.0000186
   98  -0.0000016   0.0000419  -0.0000275   0.0000129  -0.0000690  -0.0000030
   99  -0.0000340   0.0001120   0.0000668   0.0000385  -0.0000161  -0.0000176
  100  -0.0000572  -0.0002435  -0.0002116  -0.0000845   0.0004078   0.0000523
  101   0.0001045   0.0000519  -0.0000127   0.0000081  -0.0000524   0.0000025
  102   0.0000620  -0.0001411  -0.0001222  -0.0000464   0.0000083  -0.0000178
           19          20          21          22          23          24
    1  -0.0023238   0.0042307   0.0075769  -0.0503831   0.0523432   0.0181367
    2  -0.0129792   0.0102541   0.0182843   0.0521725  -0.3265376  -0.0331507
    3   0.0101474  -0.0074304  -0.0111046   0.0181117  -0.0333948  -0.0551728
    4   0.0040661   0.0018676   0.0055146   0.0037189   0.0047395  -0.0048750
    5   0.0023814   0.0003774  -0.0024621  -0.0126178  -0.0156802   0.0216553
    6   0.0054535  -0.0016674   0.0000157  -0.0021752  -0.0046026   0.0051224
    7  -0.0007155   0.0004313  -0.0003716   0.0027942  -0.0015626   0.0040866
    8   0.0004463  -0.0006222  -0.0005805  -0.0010217  -0.0005199   0.0025718
    9  -0.0001882  -0.0006858  -0.0001553   0.0040711   0.0033647  -0.0013594
   10   0.0042386   0.0023317   0.0026413  -0.0006890  -0.0003346   0.0002392
   11   0.0017556  -0.0037887  -0.0011360  -0.0002182   0.0005670   0.0001218
   12   0.0024916  -0.0019810   0.0022910   0.0001870   0.0003624  -0.0009669
   13   0.0054450  -0.0123319  -0.0023543   0.0032685   0.0013348   0.0062906
   14   0.0035620  -0.0144727  -0.0032482   0.0009284   0.0013416  -0.0005297
   15  -0.0047419   0.0211508   0.0066891   0.0063326  -0.0010288  -0.0017750
   16  -0.0797535  -0.0673650   0.0765938  -0.0008448   0.0002982   0.0036363
   17  -0.0659653  -0.1883213   0.1223053   0.0176661  -0.0055574  -0.0255388
   18   0.0764173   0.1240030  -0.1685412   0.0010173   0.0006468   0.0000662
   19   0.0740274   0.0719756  -0.0856415  -0.0027989  -0.0002449  -0.0025668
   20   0.0719756   0.1957138  -0.1337314  -0.0005335   0.0008025  -0.0000000
   21  -0.0856415  -0.1337314   0.1727772  -0.0025384  -0.0004398  -0.0006689
   22  -0.0027989  -0.0005335  -0.0025384   0.0459691  -0.0565069  -0.0228996
   23  -0.0002449   0.0008025  -0.0004398  -0.0565069   0.3455959   0.0354446
   24  -0.0025668  -0.0000000  -0.0006689  -0.0228996   0.0354446   0.0539443
   25  -0.0001554   0.0002451   0.0004358  -0.0019808  -0.0004050  -0.0018771
   26  -0.0006108   0.0003496   0.0008540  -0.0000429   0.0008407  -0.0005459
   27   0.0006031  -0.0004223  -0.0006539  -0.0019096  -0.0000450  -0.0002986
   28  -0.0009052  -0.0001916  -0.0006586   0.0008025   0.0005261  -0.0000802
   29  -0.0000564   0.0000844  -0.0000139  -0.0004127  -0.0004049   0.0007366
   30  -0.0006620   0.0000656  -0.0003572   0.0000045  -0.0006732   0.0008393
   31   0.0001046   0.0000209   0.0000820  -0.0002081  -0.0001325   0.0000349
   32  -0.0000947  -0.0000251  -0.0000108  -0.0000909  -0.0002468   0.0001970
   33   0.0000129  -0.0000360  -0.0000186   0.0000963   0.0002828  -0.0003082
   34   0.0001524   0.0004320   0.0001515   0.0000169  -0.0000711   0.0001644
   35   0.0001430   0.0002711  -0.0001951  -0.0000865   0.0003024   0.0001004
   36   0.0002592  -0.0004829   0.0001171   0.0001305   0.0001189  -0.0001480
   37   0.0000510  -0.0000176   0.0000324   0.0000053  -0.0000194   0.0000074
   38   0.0000287  -0.0000330  -0.0000182   0.0000055  -0.0000164   0.0000033
   39   0.0000078   0.0000517   0.0000192   0.0000010   0.0000396  -0.0000048
   40   0.0000554  -0.0000042   0.0000350  -0.0000563   0.0000149  -0.0000816
   41  -0.0000065   0.0000050   0.0000197  -0.0000644  -0.0000907   0.0000936
   42   0.0000252   0.0000274   0.0000218  -0.0000756  -0.0000440   0.0000077
   43  -0.0000158  -0.0000670  -0.0000281  -0.0000088   0.0000310  -0.0000288
   44   0.0000523  -0.0000686   0.0000767   0.0000185  -0.0000876  -0.0000092
   45   0.0000106  -0.0000039   0.0000204   0.0000097  -0.0000543   0.0000284
   46  -0.0000509   0.0000403  -0.0000566   0.0000049   0.0000919  -0.0000270
   47  -0.0000651  -0.0002959  -0.0000141   0.0000292  -0.0001387  -0.0000327
   48  -0.0000829   0.0000679  -0.0000039  -0.0000611  -0.0000847   0.0000209
   49   0.0000236  -0.0000446   0.0000598   0.0000085  -0.0000954   0.0000055
   50   0.0000164   0.0000046  -0.0000043  -0.0000008   0.0000172  -0.0000019
   51  -0.0000179  -0.0000177   0.0000027  -0.0000053  -0.0000495   0.0000097
   52   0.0000133   0.0000183  -0.0000084  -0.0000043   0.0000415  -0.0000092
   53  -0.0000067   0.0000900  -0.0000502  -0.0000111   0.0000918   0.0000160
   54   0.0000627   0.0001214   0.0000116  -0.0000054   0.0000900   0.0000010
   55  -0.0017780  -0.0004468  -0.0013869   0.0012912  -0.0001155   0.0002001
   56  -0.0004088   0.0019430  -0.0001269   0.0004473  -0.0000918  -0.0005251
   57  -0.0014435  -0.0000474  -0.0006911   0.0001463   0.0003930   0.0011699
   58   0.0000085  -0.0008384  -0.0002772   0.0000526  -0.0001514  -0.0001594
   59   0.0004131  -0.0013080  -0.0002290  -0.0000469   0.0001284   0.0000788
   60  -0.0004010   0.0012354   0.0001542  -0.0001345   0.0001710   0.0001952
   61   0.0002754  -0.0000782   0.0001093  -0.0009131   0.0001917  -0.0002164
   62  -0.0002055  -0.0004628   0.0004118   0.0003327  -0.0001970  -0.0006504
   63   0.0001261   0.0002280   0.0000964  -0.0003362  -0.0004141  -0.0006435
   64   0.0000256   0.0003270   0.0000723  -0.0000548   0.0000296   0.0000186
   65  -0.0001361  -0.0004609   0.0002760   0.0000425  -0.0000467  -0.0000599
   66   0.0001305  -0.0003928  -0.0000385   0.0000158  -0.0000422  -0.0000556
   67  -0.0000112   0.0000069  -0.0000046   0.0000035   0.0000005  -0.0000017
   68  -0.0000202  -0.0000144  -0.0000036  -0.0000032  -0.0000198  -0.0000023
   69  -0.0000018  -0.0000127   0.0000005  -0.0000013  -0.0000096   0.0000025
   70   0.0000018   0.0000073  -0.0000111   0.0000002   0.0000286  -0.0000047
   71   0.0000306   0.0000163   0.0000208   0.0000008   0.0000020   0.0000062
   72  -0.0000160   0.0000173  -0.0000200  -0.0000050   0.0000206   0.0000012
   73   0.0000041   0.0000169   0.0000015  -0.0000033   0.0000071   0.0000011
   74  -0.0000072  -0.0000158   0.0000011  -0.0000003  -0.0000166  -0.0000002
   75   0.0000048  -0.0000090   0.0000053  -0.0000004  -0.0000071   0.0000003
   76   0.0000034  -0.0000013   0.0000023   0.0000010   0.0000005  -0.0000023
   77   0.0000047  -0.0000041   0.0000045   0.0000027  -0.0000061   0.0000034
   78  -0.0000049  -0.0000090  -0.0000040   0.0000012  -0.0000025   0.0000006
   79  -0.0000010  -0.0000049   0.0000013  -0.0000001  -0.0000044  -0.0000002
   80  -0.0000006   0.0000007  -0.0000022  -0.0000007   0.0000040   0.0000000
   81  -0.0000034   0.0000007  -0.0000015  -0.0000002  -0.0000007  -0.0000006
   82  -0.0000043   0.0000003  -0.0000035  -0.0000015   0.0000015  -0.0000010
   83   0.0000008   0.0000019  -0.0000015  -0.0000009   0.0000036   0.0000013
   84   0.0000020   0.0000032   0.0000013   0.0000005   0.0000014  -0.0000009
   85   0.0000015   0.0000037  -0.0000021  -0.0000010   0.0000058   0.0000004
   86   0.0000004  -0.0000055   0.0000032   0.0000012  -0.0000060   0.0000001
   87  -0.0000033  -0.0000016  -0.0000009   0.0000002  -0.0000027  -0.0000000
   88  -0.0000033   0.0000011  -0.0000036  -0.0000004   0.0000034  -0.0000005
   89  -0.0000049  -0.0000060   0.0000005   0.0000005  -0.0000078  -0.0000003
   90   0.0000036  -0.0000023   0.0000053   0.0000011  -0.0000050  -0.0000003
   91   0.0000367  -0.0000448   0.0000287  -0.0000014  -0.0000334   0.0000167
   92   0.0000176  -0.0000195   0.0000124   0.0000111  -0.0000152   0.0000126
   93   0.0000061  -0.0000333   0.0000137   0.0000199  -0.0000171  -0.0000105
   94  -0.0000066   0.0000100  -0.0000047   0.0000013   0.0000087  -0.0000035
   95   0.0000011  -0.0000075   0.0000097   0.0000048  -0.0000128  -0.0000020
   96   0.0000122   0.0000067   0.0000045  -0.0000043   0.0000037   0.0000036
   97   0.0000025  -0.0000005   0.0000116   0.0000001  -0.0000229   0.0000101
   98  -0.0000053   0.0000060  -0.0000043  -0.0000014  -0.0000001   0.0000027
   99  -0.0000051  -0.0000089   0.0000022  -0.0000014  -0.0000133   0.0000002
  100  -0.0000135   0.0000037   0.0000013   0.0000109   0.0000015  -0.0000136
  101  -0.0000115   0.0000115  -0.0000081  -0.0000031   0.0000031   0.0000034
  102   0.0000037  -0.0000032   0.0000105   0.0000069  -0.0000087   0.0000008
           25          26          27          28          29          30
    1  -0.0032480  -0.0117193   0.0100708   0.0059867   0.0066148   0.0012530
    2   0.0052081   0.0108412  -0.0095841   0.0027190  -0.0003210  -0.0032500
    3   0.0075634   0.0165893  -0.0116544   0.0019933  -0.0087010   0.0057470
    4  -0.1225830   0.0537545   0.1258410   0.0051895  -0.0105698  -0.0047397
    5   0.0537154  -0.0934311  -0.0724855   0.0008258  -0.0372961   0.0047287
    6   0.1258870  -0.0732577  -0.2169764  -0.0064797   0.0228507   0.0079668
    7   0.0004399   0.0172994   0.0016049  -0.0877705  -0.0265843   0.0498326
    8   0.0007713  -0.0057852  -0.0003019  -0.0307375  -0.1742653   0.0710414
    9   0.0039286  -0.0251825   0.0006929   0.0495763   0.0613124  -0.1539393
   10   0.0051524   0.0006835   0.0023775  -0.0052924  -0.0110030   0.0197484
   11   0.0011620  -0.0059475   0.0003159  -0.0143274   0.0162191   0.0208129
   12   0.0025263   0.0009877   0.0031919   0.0210381   0.0160104  -0.0285832
   13  -0.0000531   0.0000063  -0.0004083   0.0016166   0.0029188   0.0037563
   14  -0.0001477  -0.0009095   0.0005166   0.0017306   0.0020508  -0.0026350
   15  -0.0003562   0.0001105   0.0002312   0.0036830  -0.0042050  -0.0005433
   16   0.0037137  -0.0011195   0.0030066  -0.0008866  -0.0021714   0.0011101
   17  -0.0015752  -0.0025606   0.0036208   0.0018288  -0.0001106  -0.0027014
   18   0.0030168   0.0029483   0.0003109   0.0005195   0.0032748  -0.0017118
   19  -0.0001554  -0.0006108   0.0006031  -0.0009052  -0.0000564  -0.0006620
   20   0.0002451   0.0003496  -0.0004223  -0.0001916   0.0000844   0.0000656
   21   0.0004358   0.0008540  -0.0006539  -0.0006586  -0.0000139  -0.0003572
   22  -0.0019808  -0.0000429  -0.0019096   0.0008025  -0.0004127   0.0000045
   23  -0.0004050   0.0008407  -0.0000450   0.0005261  -0.0004049  -0.0006732
   24  -0.0018771  -0.0005459  -0.0002986  -0.0000802   0.0007366   0.0008393
   25   0.1211267  -0.0586857  -0.1391835  -0.0028305  -0.0009216  -0.0021844
   26  -0.0586857   0.0944311   0.0791190  -0.0001152   0.0022076  -0.0009777
   27  -0.1391835   0.0791190   0.2255666  -0.0024156   0.0002530  -0.0006835
   28  -0.0028305  -0.0001152  -0.0024156   0.2879510  -0.0885337  -0.2518875
   29  -0.0009216   0.0022076   0.0002530  -0.0885337   0.7322007   0.0492517
   30  -0.0021844  -0.0009777  -0.0006835  -0.2518875   0.0492517   0.5452056
   31   0.0000234  -0.0001752  -0.0000013  -0.0897902   0.0837849   0.0541396
   32   0.0001351  -0.0001204  -0.0002770   0.0953756  -0.4463294  -0.0912306
   33  -0.0001010   0.0002351   0.0000397   0.0527114  -0.0757148  -0.1264798
   34  -0.0000335   0.0002639   0.0000412   0.0003427   0.0106049   0.0025393
   35  -0.0002506   0.0004911   0.0003198   0.0141406  -0.0046368  -0.0254121
   36   0.0001200  -0.0003082   0.0000348   0.0033278  -0.0197325   0.0006679
   37   0.0002150  -0.0004176   0.0001467  -0.1165796   0.0280554   0.1294552
   38   0.0005089  -0.0002926  -0.0006338   0.0265247  -0.0663996  -0.0398049
   39  -0.0000625   0.0007974   0.0001629   0.1296599  -0.0414510  -0.2514514
   40   0.0001777   0.0000177   0.0001283   0.0064175   0.0071907  -0.0045704
   41   0.0000385  -0.0000151  -0.0000235  -0.0087273  -0.0179502   0.0180709
   42   0.0001109   0.0000330   0.0000694  -0.0015502  -0.0080267   0.0085526
   43   0.0000217  -0.0000615  -0.0000202  -0.0005121  -0.0000281   0.0017070
   44   0.0000441  -0.0000029  -0.0000896  -0.0004351   0.0022509  -0.0009198
   45   0.0000202   0.0000274  -0.0000411  -0.0003583   0.0028275  -0.0011138
   46  -0.0000039  -0.0000454   0.0000377  -0.0019528  -0.0020868   0.0014678
   47   0.0000489  -0.0000764  -0.0001322   0.0017202   0.0022860  -0.0026357
   48  -0.0000462   0.0000996  -0.0000448   0.0017318   0.0023034  -0.0026657
   49   0.0000233   0.0000184  -0.0000571  -0.0001641   0.0011490  -0.0008051
   50  -0.0000255  -0.0000070  -0.0000107   0.0002292   0.0010870  -0.0002765
   51  -0.0000056   0.0000305  -0.0000230   0.0001820   0.0008780  -0.0012078
   52  -0.0000137  -0.0000162   0.0000170  -0.0007029  -0.0007176   0.0016419
   53   0.0000056   0.0000219   0.0000723  -0.0001682   0.0001945   0.0003687
   54  -0.0000273   0.0000047   0.0000556  -0.0002944  -0.0004380   0.0002687
   55  -0.0002078  -0.0001065  -0.0001598  -0.0008703  -0.0000801   0.0011243
   56  -0.0000766   0.0002392  -0.0000020   0.0001825   0.0010801  -0.0001363
   57  -0.0002141   0.0000698  -0.0001081   0.0010569  -0.0002081  -0.0017334
   58   0.0009726   0.0009492   0.0007229   0.0007235   0.0037811  -0.0043438
   59   0.0000275   0.0004679   0.0000385  -0.0022830  -0.0121360   0.0056426
   60   0.0008118  -0.0014238   0.0004396  -0.0033359  -0.0021958   0.0030043
   61  -0.0007592   0.0001138  -0.0004541  -0.0005515  -0.0007204   0.0006636
   62   0.0001457  -0.0007594  -0.0002132  -0.0013492  -0.0008927   0.0020502
   63  -0.0004225  -0.0001766  -0.0002879   0.0009148   0.0007906  -0.0013366
   64   0.0000071   0.0000155   0.0000131   0.0000430   0.0001077   0.0002042
   65   0.0000072  -0.0000121  -0.0000050   0.0002371  -0.0002802  -0.0002759
   66   0.0000149  -0.0000170   0.0000001   0.0001704  -0.0000263  -0.0000791
   67   0.0000070  -0.0000005   0.0000047   0.0000007   0.0000137  -0.0001009
   68  -0.0000001   0.0000000  -0.0000150   0.0002978   0.0000922  -0.0002563
   69  -0.0000051   0.0000028  -0.0000107   0.0002173   0.0001120  -0.0002389
   70  -0.0000101  -0.0000136   0.0000120   0.0000231  -0.0003748   0.0004494
   71  -0.0000070   0.0000062  -0.0000033  -0.0001864   0.0001625  -0.0000975
   72   0.0000030   0.0000052   0.0000163  -0.0000092  -0.0001523   0.0001648
   73  -0.0000050   0.0000041   0.0000026  -0.0000526  -0.0001998   0.0000074
   74   0.0000037   0.0000008  -0.0000077   0.0000632   0.0001191  -0.0001892
   75  -0.0000029   0.0000004  -0.0000071   0.0000175   0.0001591  -0.0000924
   76  -0.0000011  -0.0000038  -0.0000003  -0.0000257   0.0000181   0.0000839
   77   0.0000043   0.0000023  -0.0000006   0.0000345   0.0001045  -0.0001351
   78   0.0000071   0.0000004   0.0000031  -0.0000344   0.0001642   0.0000328
   79   0.0000003  -0.0000002  -0.0000024   0.0000044   0.0000348  -0.0000202
   80  -0.0000022   0.0000009   0.0000021  -0.0000076  -0.0000033   0.0000384
   81   0.0000003  -0.0000002  -0.0000001   0.0000127  -0.0000443   0.0000002
   82  -0.0000027  -0.0000001   0.0000003   0.0000062   0.0000251   0.0000737
   83   0.0000002   0.0000020   0.0000031  -0.0000404   0.0000027  -0.0000050
   84  -0.0000008  -0.0000019  -0.0000006   0.0000131  -0.0000297   0.0000185
   85  -0.0000024   0.0000000   0.0000028  -0.0000086  -0.0000228   0.0000256
   86   0.0000013   0.0000005  -0.0000033   0.0000325   0.0000640  -0.0000540
   87   0.0000017  -0.0000001  -0.0000010   0.0000161   0.0000021  -0.0000329
   88  -0.0000001  -0.0000004   0.0000023   0.0000097  -0.0000314   0.0000465
   89   0.0000032   0.0000016  -0.0000030   0.0000205   0.0000887  -0.0000597
   90  -0.0000000  -0.0000009  -0.0000041  -0.0000070   0.0000139  -0.0000177
   91   0.0000030   0.0000165  -0.0000147   0.0002236  -0.0002922  -0.0007428
   92   0.0000164   0.0000080  -0.0000028   0.0001829   0.0001732  -0.0006575
   93   0.0000381  -0.0000216  -0.0000125   0.0000995  -0.0006300  -0.0005307
   94  -0.0000043  -0.0000016   0.0000030  -0.0000855  -0.0001440   0.0002075
   95   0.0000062  -0.0000086  -0.0000098   0.0000069   0.0000780   0.0000858
   96  -0.0000059   0.0000031   0.0000010  -0.0000010   0.0001464   0.0000475
   97   0.0000059   0.0000123  -0.0000071  -0.0002520   0.0009273   0.0001511
   98   0.0000014   0.0000083   0.0000041   0.0003386   0.0002056   0.0000672
   99   0.0000074  -0.0000090  -0.0000077   0.0001509   0.0002373   0.0001920
  100   0.0000049  -0.0000189  -0.0000048  -0.0001076  -0.0002754   0.0003640
  101  -0.0000031   0.0000075   0.0000062   0.0000855   0.0002741   0.0001593
  102   0.0000023   0.0000048  -0.0000005   0.0000196   0.0002452   0.0000905
           31          32          33          34          35          36
    1   0.0014941  -0.0019079  -0.0005811  -0.0011645   0.0006901   0.0013227
    2  -0.0001741  -0.0021212   0.0007414   0.0006276   0.0018534  -0.0008457
    3  -0.0018222   0.0033910   0.0012095   0.0013744  -0.0013713  -0.0022992
    4   0.0002064  -0.0017618   0.0030720  -0.0005279  -0.0006935   0.0008399
    5  -0.0042927   0.0091559   0.0041051   0.0010214  -0.0037137  -0.0023445
    6   0.0032972   0.0016148  -0.0036212   0.0003938   0.0016974  -0.0011039
    7   0.0110191  -0.0023273  -0.0072170  -0.0057364  -0.0031390   0.0002024
    8  -0.0022756  -0.0500047   0.0163110  -0.0018186   0.0072534   0.0037539
    9  -0.0069387   0.0132870   0.0148074   0.0000223   0.0030975  -0.0065679
   10  -0.0009855   0.0041168   0.0019053   0.0052176  -0.0035265  -0.0127420
   11   0.0004174  -0.0048781   0.0032946  -0.0051366  -0.0387492   0.0133634
   12   0.0029632  -0.0048572  -0.0027816  -0.0127773   0.0069182   0.0113820
   13   0.0000951   0.0003807  -0.0009001   0.0028235   0.0067083  -0.0014284
   14   0.0000894  -0.0012494  -0.0010200   0.0047580  -0.0013398  -0.0049034
   15  -0.0007583   0.0003363   0.0014640  -0.0003460  -0.0087833   0.0052087
   16  -0.0009016   0.0011453   0.0002011   0.0012834  -0.0012523  -0.0004491
   17   0.0007223  -0.0005146   0.0004979  -0.0018998  -0.0006637   0.0027751
   18   0.0007715  -0.0017679  -0.0006852  -0.0004065   0.0022433   0.0011863
   19   0.0001046  -0.0000947   0.0000129   0.0001524   0.0001430   0.0002592
   20   0.0000209  -0.0000251  -0.0000360   0.0004320   0.0002711  -0.0004829
   21   0.0000820  -0.0000108  -0.0000186   0.0001515  -0.0001951   0.0001171
   22  -0.0002081  -0.0000909   0.0000963   0.0000169  -0.0000865   0.0001305
   23  -0.0001325  -0.0002468   0.0002828  -0.0000711   0.0003024   0.0001189
   24   0.0000349   0.0001970  -0.0003082   0.0001644   0.0001004  -0.0001480
   25   0.0000234   0.0001351  -0.0001010  -0.0000335  -0.0002506   0.0001200
   26  -0.0001752  -0.0001204   0.0002351   0.0002639   0.0004911  -0.0003082
   27  -0.0000013  -0.0002770   0.0000397   0.0000412   0.0003198   0.0000348
   28  -0.0897902   0.0953756   0.0527114   0.0003427   0.0141406   0.0033278
   29   0.0837849  -0.4463294  -0.0757148   0.0106049  -0.0046368  -0.0197325
   30   0.0541396  -0.0912306  -0.1264798   0.0025393  -0.0254121   0.0006679
   31   0.2468204  -0.0514176  -0.1767724  -0.0889341   0.0061871   0.0353769
   32  -0.0514176   0.8353944  -0.0317706   0.0115740  -0.0866022  -0.0100291
   33  -0.1767724  -0.0317706   0.4550159   0.0538476  -0.0098927  -0.1503488
   34  -0.0889341   0.0115740   0.0538476   0.3841565  -0.0598857  -0.0713715
   35   0.0061871  -0.0866022  -0.0098927  -0.0598857   0.4122929   0.0161864
   36   0.0353769  -0.0100291  -0.1503488  -0.0713715   0.0161864   0.3952838
   37  -0.0001394   0.0003042   0.0066966   0.0080358   0.0009653   0.0042456
   38   0.0161907  -0.0030777  -0.0275836   0.0003043  -0.0034016   0.0018349
   39   0.0036693  -0.0002342  -0.0027448   0.0038382   0.0010384   0.0043236
   40  -0.0603393  -0.0598062   0.0564804  -0.0033305  -0.0114143   0.0087242
   41  -0.0601741  -0.2235206   0.1338142   0.0040043   0.0061005  -0.0077595
   42   0.0551795   0.1312034  -0.1513628   0.0065318   0.0203200  -0.0133072
   43   0.0091476  -0.0000236  -0.0013441  -0.0575306   0.0153684  -0.0032822
   44  -0.0031732  -0.0091417  -0.0156459  -0.0158378  -0.0272748  -0.0075406
   45  -0.0049231  -0.0158340  -0.0183971  -0.0193207   0.0035525  -0.0347936
   46  -0.0172008   0.0197127   0.0024504  -0.1256446   0.0526496  -0.0276600
   47   0.0231944  -0.0188234  -0.0021923   0.0296608  -0.1068297  -0.0058889
   48   0.0203885  -0.0186457   0.0069883  -0.0251439  -0.0123246  -0.0742378
   49  -0.0018700  -0.0006835  -0.0019911   0.0160004   0.0009521   0.0064195
   50  -0.0003740  -0.0027271  -0.0010123  -0.0046879  -0.0164356  -0.0164404
   51  -0.0026255  -0.0034154  -0.0015997  -0.0007724  -0.0110212  -0.0115745
   52  -0.0036105   0.0049304  -0.0020760  -0.0154833   0.0171236   0.0158940
   53  -0.0037097   0.0001751  -0.0009643   0.0353991  -0.0310671  -0.0078457
   54  -0.0023222  -0.0003049  -0.0008313   0.0254878  -0.0059167   0.0079147
   55  -0.0004826  -0.0011850   0.0004462  -0.0004236   0.0042238   0.0043219
   56   0.0005661   0.0001732  -0.0010581   0.0035885   0.0096308  -0.0075025
   57   0.0006665   0.0015511  -0.0003795   0.0034109  -0.0073790  -0.0020596
   58  -0.0065792  -0.0186725   0.0122011  -0.0781034  -0.0135683   0.0436209
   59  -0.0055801   0.0125320   0.0035179  -0.0094961  -0.1358287   0.0193887
   60   0.0157276   0.0274588  -0.0205497   0.0410829   0.0070769  -0.0941867
   61   0.0014755  -0.0001094   0.0010740  -0.0151940  -0.0116856   0.0064535
   62  -0.0016279  -0.0059667   0.0021035  -0.0172677   0.0094992   0.0252751
   63   0.0012470   0.0010107  -0.0001145   0.0046556   0.0160021  -0.0228986
   64  -0.0001838  -0.0000278  -0.0000301   0.0015541   0.0001885   0.0007389
   65  -0.0001559  -0.0006698   0.0001531  -0.0004574   0.0020709   0.0009635
   66  -0.0000450   0.0000821  -0.0001694   0.0009879  -0.0004727   0.0004748
   67  -0.0000277  -0.0003104  -0.0000269   0.0050815  -0.0033115  -0.0012473
   68   0.0013924  -0.0005195   0.0010631  -0.0065692  -0.0002845  -0.0053453
   69   0.0012148  -0.0005958   0.0005406  -0.0040179  -0.0006127  -0.0039640
   70   0.0013723   0.0006017   0.0008321  -0.0062084   0.0021312  -0.0003121
   71  -0.0004621   0.0004499  -0.0001674   0.0055881  -0.0018587   0.0021474
   72  -0.0000726   0.0002244  -0.0003486   0.0008520   0.0008321   0.0014136
   73  -0.0001481   0.0006884   0.0001606   0.0005450  -0.0012672  -0.0002486
   74  -0.0000327  -0.0006645   0.0000139  -0.0021104   0.0010075  -0.0018375
   75   0.0001011  -0.0001320   0.0000542  -0.0009766  -0.0003991  -0.0002729
   76  -0.0000955  -0.0001903  -0.0002035  -0.0009553   0.0012220   0.0003077
   77  -0.0001690  -0.0005045  -0.0000616   0.0033257   0.0008182   0.0001606
   78  -0.0005230  -0.0003178  -0.0004576   0.0012652  -0.0000719   0.0011643
   79   0.0000472  -0.0000074   0.0000523  -0.0002106   0.0001017  -0.0000141
   80   0.0001372   0.0000454   0.0000268  -0.0004872  -0.0002550   0.0001022
   81   0.0000176  -0.0000107   0.0000904  -0.0007793  -0.0000054  -0.0006153
   82   0.0001235   0.0000056  -0.0000272  -0.0008165  -0.0002638  -0.0002300
   83  -0.0001125   0.0000617  -0.0000997   0.0001435  -0.0000158   0.0003214
   84   0.0000700   0.0000268   0.0000767   0.0002368  -0.0000886   0.0000338
   85   0.0000214   0.0000087  -0.0000160   0.0001062  -0.0002626   0.0000617
   86   0.0001177  -0.0001680   0.0000433  -0.0001661   0.0002063  -0.0002905
   87   0.0000420  -0.0000316   0.0000913  -0.0001813  -0.0000950  -0.0004517
   88   0.0000904   0.0000308   0.0000015  -0.0005218   0.0000651  -0.0000121
   89  -0.0001381  -0.0001455  -0.0000932   0.0003828   0.0001863   0.0000335
   90   0.0000815   0.0000165   0.0000711   0.0000399   0.0001468   0.0000030
   91  -0.0005065  -0.0002661  -0.0002203  -0.0256262  -0.0023866  -0.0107658
   92   0.0012072   0.0003004   0.0009967   0.0136411   0.0093513   0.0131250
   93   0.0013097  -0.0007478   0.0005232  -0.0127283   0.0106461  -0.0097352
   94   0.0002542  -0.0000063  -0.0003970  -0.0010359  -0.0025195  -0.0039726
   95   0.0001557  -0.0000960   0.0002345  -0.0015848  -0.0007841  -0.0014722
   96   0.0002968  -0.0001177   0.0001736   0.0006889  -0.0014868  -0.0021741
   97  -0.0000719  -0.0007947  -0.0002005   0.0012569  -0.0008188  -0.0010368
   98   0.0000959   0.0000064   0.0001071   0.0010926  -0.0003913   0.0007528
   99  -0.0000160  -0.0000081   0.0001333   0.0010415  -0.0025658   0.0004892
  100  -0.0002202   0.0006734  -0.0001373   0.0009081  -0.0065281   0.0024052
  101  -0.0001023  -0.0001774  -0.0002294   0.0010638  -0.0012029   0.0002663
  102   0.0001430  -0.0000609  -0.0000807   0.0001677  -0.0020838   0.0010412
           37          38          39          40          41          42
    1  -0.0001697   0.0000865   0.0000126  -0.0006663   0.0000848  -0.0005150
    2  -0.0001580  -0.0001388   0.0002387   0.0000584  -0.0003781  -0.0000775
    3   0.0000108  -0.0001870  -0.0001137  -0.0004853  -0.0001994  -0.0000904
    4  -0.0006877  -0.0002261  -0.0009916   0.0006163  -0.0006858  -0.0000333
    5   0.0003787   0.0019802  -0.0010225   0.0000350  -0.0002269   0.0000370
    6  -0.0011028  -0.0002717   0.0005252  -0.0000690   0.0011918   0.0006173
    7  -0.0012634  -0.0126549   0.0088772   0.0070256   0.0029491   0.0046454
    8   0.0021250   0.0088746  -0.0057859   0.0023028  -0.0029571  -0.0016900
    9   0.0064936   0.0202350  -0.0110522   0.0048256  -0.0027324   0.0025296
   10   0.0020436  -0.0006776   0.0012692  -0.0003898   0.0003877   0.0001811
   11  -0.0012168  -0.0049078   0.0039048   0.0005915  -0.0000182  -0.0014389
   12   0.0013479   0.0025044  -0.0003159  -0.0000679  -0.0006146  -0.0002493
   13   0.0000968  -0.0005513   0.0005270  -0.0002747  -0.0000886  -0.0000811
   14   0.0003697   0.0010063  -0.0009282  -0.0001508   0.0001464   0.0002107
   15   0.0003308   0.0006225  -0.0001983  -0.0001267   0.0000381  -0.0002566
   16   0.0000640   0.0000247  -0.0001026   0.0001106   0.0000499   0.0001453
   17   0.0000292   0.0001748   0.0000430   0.0000847  -0.0000374  -0.0002828
   18  -0.0000836  -0.0000475   0.0001406   0.0001593  -0.0000412   0.0000246
   19   0.0000510   0.0000287   0.0000078   0.0000554  -0.0000065   0.0000252
   20  -0.0000176  -0.0000330   0.0000517  -0.0000042   0.0000050   0.0000274
   21   0.0000324  -0.0000182   0.0000192   0.0000350   0.0000197   0.0000218
   22   0.0000053   0.0000055   0.0000010  -0.0000563  -0.0000644  -0.0000756
   23  -0.0000194  -0.0000164   0.0000396   0.0000149  -0.0000907  -0.0000440
   24   0.0000074   0.0000033  -0.0000048  -0.0000816   0.0000936   0.0000077
   25   0.0002150   0.0005089  -0.0000625   0.0001777   0.0000385   0.0001109
   26  -0.0004176  -0.0002926   0.0007974   0.0000177  -0.0000151   0.0000330
   27   0.0001467  -0.0006338   0.0001629   0.0001283  -0.0000235   0.0000694
   28  -0.1165796   0.0265247   0.1296599   0.0064175  -0.0087273  -0.0015502
   29   0.0280554  -0.0663996  -0.0414510   0.0071907  -0.0179502  -0.0080267
   30   0.1294552  -0.0398049  -0.2514514  -0.0045704   0.0180709   0.0085526
   31  -0.0001394   0.0161907   0.0036693  -0.0603393  -0.0601741   0.0551795
   32   0.0003042  -0.0030777  -0.0002342  -0.0598062  -0.2235206   0.1312034
   33   0.0066966  -0.0275836  -0.0027448   0.0564804   0.1338142  -0.1513628
   34   0.0080358   0.0003043   0.0038382  -0.0033305   0.0040043   0.0065318
   35   0.0009653  -0.0034016   0.0010384  -0.0114143   0.0061005   0.0203200
   36   0.0042456   0.0018349   0.0043236   0.0087242  -0.0077595  -0.0133072
   37   0.1128780  -0.0299981  -0.1435610  -0.0046437  -0.0004247  -0.0032956
   38  -0.0299981   0.0664048   0.0444374  -0.0005894   0.0007896  -0.0002167
   39  -0.1435610   0.0444374   0.2619506  -0.0033195  -0.0003922  -0.0009121
   40  -0.0046437  -0.0005894  -0.0033195   0.0544947   0.0615847  -0.0634945
   41  -0.0004247   0.0007896  -0.0003922   0.0615847   0.2367656  -0.1389750
   42  -0.0032956  -0.0002167  -0.0009121  -0.0634945  -0.1389750   0.1565620
   43  -0.0004715   0.0001353  -0.0003836   0.0002707   0.0004183   0.0003562
   44   0.0008737   0.0001081   0.0004481   0.0001720   0.0004386   0.0005155
   45   0.0007934   0.0000355   0.0004376  -0.0006259  -0.0004419   0.0004346
   46   0.0008491   0.0006130   0.0007438   0.0018120  -0.0006486  -0.0014385
   47  -0.0012608  -0.0009605  -0.0014104  -0.0009986   0.0008903  -0.0001211
   48  -0.0013858  -0.0008259  -0.0008982  -0.0016248  -0.0002011   0.0015660
   49   0.0002846  -0.0000389   0.0001536   0.0000323   0.0000456   0.0000850
   50  -0.0000119  -0.0000608  -0.0000786  -0.0002858  -0.0000496  -0.0002534
   51   0.0003492  -0.0000954   0.0002019  -0.0000918   0.0000535   0.0000782
   52   0.0002964   0.0004269   0.0003269  -0.0001867   0.0000122   0.0000395
   53   0.0004496   0.0002311   0.0004511   0.0007789  -0.0001983  -0.0003115
   54   0.0003143   0.0001907   0.0002791   0.0006948  -0.0001477  -0.0001067
   55  -0.0001473  -0.0000785  -0.0000023  -0.0002034   0.0001453   0.0004800
   56  -0.0001550  -0.0002650   0.0003352  -0.0000060  -0.0000535  -0.0000067
   57  -0.0000167   0.0001339  -0.0001755   0.0003276  -0.0001812  -0.0005838
   58   0.0001515   0.0002112  -0.0003827  -0.0003330   0.0010994   0.0029979
   59   0.0001400  -0.0002594  -0.0000388   0.0018275  -0.0006320  -0.0028420
   60  -0.0005470  -0.0004171   0.0003133   0.0033728  -0.0014520  -0.0037954
   61  -0.0002732  -0.0002189  -0.0000274  -0.0001138   0.0001779  -0.0003864
   62   0.0000716   0.0003849  -0.0002193  -0.0008861   0.0008148   0.0016965
   63  -0.0000980   0.0002346  -0.0002069  -0.0002103  -0.0002253   0.0001368
   64  -0.0000754  -0.0000627  -0.0000038   0.0000227  -0.0000147  -0.0000057
   65   0.0000327   0.0001321  -0.0000912  -0.0001014   0.0000676   0.0001860
   66  -0.0000202   0.0000520  -0.0000656   0.0000283  -0.0000088  -0.0000049
   67   0.0000166   0.0000011   0.0000064   0.0001259  -0.0000531  -0.0000161
   68  -0.0002203  -0.0001236  -0.0001507  -0.0002187   0.0001207  -0.0000279
   69  -0.0001387  -0.0000942  -0.0001189  -0.0000987   0.0000486  -0.0000361
   70  -0.0001937   0.0000259  -0.0001148  -0.0000573  -0.0000397   0.0000047
   71   0.0000093   0.0000399   0.0000566   0.0001560   0.0000605  -0.0000136
   72   0.0000080   0.0000258   0.0000178  -0.0000072   0.0000390  -0.0000100
   73  -0.0000323   0.0000200   0.0000163   0.0000165   0.0000898  -0.0000420
   74   0.0000254  -0.0000468  -0.0000091  -0.0000850  -0.0000214   0.0000483
   75  -0.0000338  -0.0000250  -0.0000285  -0.0000223   0.0000282  -0.0000284
   76   0.0000222   0.0000170   0.0000048  -0.0000230  -0.0000403   0.0000313
   77   0.0000595  -0.0000232   0.0000196   0.0000715  -0.0000667   0.0000507
   78   0.0001146   0.0000223   0.0000617   0.0000404  -0.0000823   0.0000323
   79  -0.0000048  -0.0000064  -0.0000060  -0.0000066  -0.0000028  -0.0000014
   80  -0.0000251   0.0000018  -0.0000137  -0.0000120   0.0000020  -0.0000043
   81  -0.0000062  -0.0000072  -0.0000054  -0.0000151   0.0000017   0.0000097
   82  -0.0000173   0.0000121  -0.0000040  -0.0000301  -0.0000026  -0.0000135
   83   0.0000207   0.0000089   0.0000165   0.0000239   0.0000040  -0.0000005
   84  -0.0000114   0.0000007  -0.0000078  -0.0000038   0.0000005   0.0000042
   85  -0.0000034   0.0000066   0.0000005   0.0000047  -0.0000037  -0.0000031
   86  -0.0000048  -0.0000182  -0.0000120  -0.0000108  -0.0000020   0.0000044
   87  -0.0000103  -0.0000095  -0.0000076  -0.0000011   0.0000043  -0.0000016
   88  -0.0000121   0.0000035  -0.0000081  -0.0000113   0.0000015  -0.0000003
   89   0.0000267  -0.0000123   0.0000096  -0.0000021   0.0000007   0.0000030
   90  -0.0000107  -0.0000038  -0.0000070  -0.0000015  -0.0000005   0.0000032
   91  -0.0001363  -0.0001982  -0.0001356  -0.0003430   0.0000183   0.0003012
   92  -0.0001075  -0.0001670  -0.0001367   0.0000318   0.0001669   0.0000626
   93  -0.0000934  -0.0001276  -0.0001699   0.0000781   0.0000694   0.0001406
   94  -0.0000090   0.0000660   0.0000173  -0.0000900  -0.0000070   0.0000062
   95  -0.0000106  -0.0000069  -0.0000206   0.0000149   0.0000118   0.0000188
   96  -0.0000268   0.0000056  -0.0000033   0.0000518  -0.0000117   0.0000276
   97  -0.0001301   0.0000105  -0.0000256  -0.0001672  -0.0000869  -0.0000530
   98   0.0000726   0.0000417   0.0000519  -0.0003118  -0.0001207  -0.0000389
   99   0.0000727   0.0000057   0.0000192   0.0000558   0.0000440  -0.0000265
  100  -0.0000203   0.0000778  -0.0000007   0.0000835  -0.0000366  -0.0001157
  101   0.0000390   0.0000327   0.0000558  -0.0000734  -0.0000464  -0.0000459
  102   0.0000229   0.0000249   0.0000349  -0.0000848  -0.0000273  -0.0000465
           43          44          45          46          47          48
    1  -0.0000532  -0.0010108  -0.0009365   0.0004843  -0.0003032  -0.0004830
    2  -0.0004434  -0.0005567  -0.0002153  -0.0000217  -0.0004998   0.0001111
    3   0.0001094   0.0014025   0.0013251  -0.0007597   0.0009120   0.0008754
    4   0.0001456   0.0002681   0.0000740   0.0001313  -0.0000129  -0.0001255
    5   0.0006745   0.0021552   0.0018189  -0.0007707   0.0015290   0.0008382
    6  -0.0001293  -0.0004720  -0.0002464   0.0000622  -0.0005685   0.0002888
    7   0.0004776   0.0006191  -0.0001286  -0.0004658   0.0010878   0.0001413
    8  -0.0011791  -0.0030509  -0.0025604   0.0007984  -0.0017126  -0.0007044
    9  -0.0005981  -0.0008338   0.0004539   0.0000986  -0.0001974   0.0005281
   10  -0.0033526  -0.0047328  -0.0003482   0.0000967  -0.0003282   0.0006655
   11   0.0029078   0.0047115  -0.0004050  -0.0007096   0.0045325  -0.0022379
   12   0.0002575   0.0001258  -0.0002485  -0.0007839   0.0084341  -0.0025943
   13  -0.0006322  -0.0011728  -0.0003338   0.0005123  -0.0017445  -0.0002040
   14  -0.0003212   0.0006861   0.0013981  -0.0003548  -0.0019111   0.0017505
   15   0.0010744   0.0026131   0.0003422  -0.0002321   0.0010019  -0.0002300
   16   0.0003043   0.0008848   0.0005507  -0.0002270  -0.0002435   0.0005370
   17   0.0001824  -0.0010471  -0.0012545   0.0008507  -0.0003853  -0.0009066
   18  -0.0000556  -0.0007787  -0.0007914   0.0001666  -0.0003414  -0.0003316
   19  -0.0000158   0.0000523   0.0000106  -0.0000509  -0.0000651  -0.0000829
   20  -0.0000670  -0.0000686  -0.0000039   0.0000403  -0.0002959   0.0000679
   21  -0.0000281   0.0000767   0.0000204  -0.0000566  -0.0000141  -0.0000039
   22  -0.0000088   0.0000185   0.0000097   0.0000049   0.0000292  -0.0000611
   23   0.0000310  -0.0000876  -0.0000543   0.0000919  -0.0001387  -0.0000847
   24  -0.0000288  -0.0000092   0.0000284  -0.0000270  -0.0000327   0.0000209
   25   0.0000217   0.0000441   0.0000202  -0.0000039   0.0000489  -0.0000462
   26  -0.0000615  -0.0000029   0.0000274  -0.0000454  -0.0000764   0.0000996
   27  -0.0000202  -0.0000896  -0.0000411   0.0000377  -0.0001322  -0.0000448
   28  -0.0005121  -0.0004351  -0.0003583  -0.0019528   0.0017202   0.0017318
   29  -0.0000281   0.0022509   0.0028275  -0.0020868   0.0022860   0.0023034
   30   0.0017070  -0.0009198  -0.0011138   0.0014678  -0.0026357  -0.0026657
   31   0.0091476  -0.0031732  -0.0049231  -0.0172008   0.0231944   0.0203885
   32  -0.0000236  -0.0091417  -0.0158340   0.0197127  -0.0188234  -0.0186457
   33  -0.0013441  -0.0156459  -0.0183971   0.0024504  -0.0021923   0.0069883
   34  -0.0575306  -0.0158378  -0.0193207  -0.1256446   0.0296608  -0.0251439
   35   0.0153684  -0.0272748   0.0035525   0.0526496  -0.1068297  -0.0123246
   36  -0.0032822  -0.0075406  -0.0347936  -0.0276600  -0.0058889  -0.0742378
   37  -0.0004715   0.0008737   0.0007934   0.0008491  -0.0012608  -0.0013858
   38   0.0001353   0.0001081   0.0000355   0.0006130  -0.0009605  -0.0008259
   39  -0.0003836   0.0004481   0.0004376   0.0007438  -0.0014104  -0.0008982
   40   0.0002707   0.0001720  -0.0006259   0.0018120  -0.0009986  -0.0016248
   41   0.0004183   0.0004386  -0.0004419  -0.0006486   0.0008903  -0.0002011
   42   0.0003562   0.0005155   0.0004346  -0.0014385  -0.0001211   0.0015660
   43   0.2301558  -0.0611715   0.0298774  -0.0267240  -0.0061589  -0.0181872
   44  -0.0611715   0.1604804   0.0553542  -0.0062143   0.0039261  -0.0018004
   45   0.0298774   0.0553542   0.0833319  -0.0207740  -0.0027172  -0.0096529
   46  -0.0267240  -0.0062143  -0.0207740   0.4926257  -0.0547877   0.1600924
   47  -0.0061589   0.0039261  -0.0027172  -0.0547877   0.5021665   0.2095480
   48  -0.0181872  -0.0018004  -0.0096529   0.1600924   0.2095480   0.3426864
   49  -0.1094037   0.0663840   0.0108383  -0.0031640  -0.0084395  -0.0167530
   50   0.0439974  -0.0781819  -0.0237989  -0.0165655  -0.0162998  -0.0332835
   51  -0.0045230  -0.0136538  -0.0313199  -0.0216224  -0.0264463  -0.0325318
   52  -0.0387656   0.0224317  -0.0047002  -0.1002777   0.0276704  -0.0162289
   53   0.0257172  -0.0122684  -0.0012496   0.0148513  -0.1842450  -0.0953276
   54  -0.0014957  -0.0024661   0.0021786  -0.0255302  -0.1221533  -0.1384072
   55   0.0000242   0.0006584   0.0002062   0.0003722   0.0003245  -0.0002609
   56  -0.0011927  -0.0032456  -0.0010248   0.0012379  -0.0029329  -0.0002108
   57   0.0000528  -0.0001641   0.0000912  -0.0004070  -0.0001597   0.0002128
   58  -0.0060407  -0.0196224  -0.0010248   0.0072664   0.0237211  -0.0059428
   59  -0.0251720  -0.0282051  -0.0030211   0.0106660  -0.0499970   0.0226929
   60  -0.0005610  -0.0029659   0.0076218  -0.0090604   0.0181151   0.0018648
   61   0.0016916   0.0022133   0.0013723   0.0000918   0.0025136  -0.0009577
   62   0.0003553   0.0017967   0.0012852  -0.0005173   0.0023112  -0.0000561
   63  -0.0017836  -0.0044879   0.0004880   0.0014433  -0.0044644   0.0017649
   64  -0.0000001  -0.0000093  -0.0001143  -0.0000698  -0.0001460   0.0000200
   65  -0.0000081  -0.0000361  -0.0000562   0.0001578  -0.0002030  -0.0000694
   66   0.0000064  -0.0000053  -0.0000466  -0.0001712   0.0000646   0.0000181
   67   0.0007104  -0.0014030  -0.0030949   0.0011643   0.0090189   0.0107314
   68  -0.0043304   0.0045698  -0.0009087   0.0288820  -0.0242849  -0.0115601
   69  -0.0043157   0.0000138   0.0006021   0.0244318  -0.0221758   0.0012076
   70   0.0017125   0.0196691   0.0153280  -0.0055731   0.0011989  -0.0031469
   71   0.0064282  -0.0169428  -0.0125526   0.0013415   0.0049097   0.0055478
   72   0.0053985  -0.0059125   0.0003355  -0.0041108   0.0021685   0.0050053
   73   0.0019754  -0.0029752  -0.0028739   0.0014960   0.0003270   0.0033717
   74  -0.0015358   0.0018688  -0.0016607   0.0017992  -0.0045272  -0.0051097
   75  -0.0029401  -0.0023831   0.0004083   0.0026261  -0.0026948  -0.0031231
   76  -0.0011997   0.0016253   0.0011425  -0.0045356   0.0016061  -0.0061768
   77   0.0018584  -0.0022514  -0.0011186  -0.0006461   0.0046641   0.0008672
   78   0.0010812  -0.0004716  -0.0007586  -0.0054900   0.0009683   0.0025239
   79   0.0002560  -0.0009220   0.0006344   0.0003683  -0.0001372  -0.0001419
   80  -0.0009207   0.0001096   0.0012107  -0.0011232   0.0000845  -0.0005845
   81   0.0007648   0.0012500  -0.0008201  -0.0007895  -0.0002594  -0.0002320
   82  -0.0007309   0.0003987  -0.0002123   0.0003328  -0.0017063   0.0001179
   83   0.0008007  -0.0004225   0.0001893  -0.0017100  -0.0002081   0.0013937
   84   0.0001333   0.0000185   0.0000809   0.0000452   0.0016796  -0.0014601
   85   0.0000196   0.0000428   0.0001519   0.0000946   0.0002781   0.0001485
   86  -0.0000981  -0.0000630   0.0001616   0.0012615  -0.0005059   0.0001130
   87   0.0001739   0.0001165  -0.0001027   0.0009161  -0.0006682   0.0005001
   88   0.0003906   0.0008240   0.0005371   0.0001878  -0.0001425   0.0000750
   89  -0.0001583  -0.0002802  -0.0006321  -0.0002776  -0.0000253   0.0001066
   90  -0.0002302  -0.0002470   0.0001558   0.0002579  -0.0000391  -0.0000513
   91  -0.0013746   0.0009831  -0.0015242  -0.1757314  -0.0239445  -0.0654869
   92   0.0044851   0.0004342   0.0018980  -0.0281983  -0.1097780  -0.0442981
   93  -0.0007636  -0.0010607   0.0005785  -0.0444054  -0.0318034  -0.0904660
   94  -0.0010238  -0.0000469  -0.0005141  -0.0225626   0.0198783  -0.0153327
   95  -0.0006057  -0.0001382  -0.0003457  -0.0071846   0.0137037  -0.0077910
   96  -0.0002792  -0.0002852  -0.0003048  -0.0144451   0.0084361  -0.0082546
   97   0.0003447   0.0000869   0.0003043   0.0069009  -0.0260923  -0.0232902
   98  -0.0000617  -0.0000593   0.0000540   0.0008926  -0.0105084  -0.0083842
   99   0.0000570   0.0001064   0.0000577   0.0000622  -0.0142861  -0.0140948
  100   0.0001920   0.0004770  -0.0000432  -0.0306071  -0.0157664   0.0030421
  101   0.0001780  -0.0002113   0.0000425  -0.0139840  -0.0058546  -0.0010336
  102  -0.0001003   0.0001521  -0.0003350  -0.0171381  -0.0099257   0.0132287
[...]
    -0.00485892     -0.04574225      0.07588858
    -0.35434081      0.61574552     -0.38963388
     0.10335246     -0.25257067     -0.21992669
     0.31062103      0.18193465     -0.28756989
vibration 86
    -0.00000170     -0.00004394      0.00000957
     0.00003534     -0.00000073     -0.00003899
    -0.00001151     -0.00000801     -0.00001307
    -0.00005680      0.00009567      0.00001432
    -0.00001651      0.00001855      0.00001807
    -0.00000770     -0.00003436      0.00002328
     0.00014256      0.00028031     -0.00029345
    -0.00008506      0.00041833      0.00005656
    -0.00028734      0.00018067      0.00042868
     0.00014951     -0.00001327     -0.00007870
    -0.00007169     -0.00008838      0.00016204
    -0.00032788     -0.00043398      0.00014798
    -0.00036332      0.00028609      0.00135174
     0.00025601      0.00156561     -0.00137705
    -0.00003961      0.00000817     -0.00001624
     0.00035390      0.00000636     -0.00011749
     0.00003467      0.00002833      0.00004824
     0.00048614      0.00032811      0.00017974
    -0.00000795     -0.00005155      0.00000501
     0.00013663      0.00006227     -0.00002049
     0.00001904      0.00003739     -0.00006750
    -0.00002361     -0.00003485     -0.00001592
    -0.00192694     -0.00034976     -0.00129493
     0.00003707      0.00000820      0.00003981
     0.00000326     -0.00010039     -0.00007742
     0.00036095     -0.00027072      0.00000967
    -0.00093989     -0.00016320     -0.00065376
     0.02214998      0.00495115      0.01472502
    -0.00505162      0.00381446      0.00050717
    -0.00005751      0.00110755      0.00075800
     0.04297945     -0.07307581     -0.03652864
    -0.18280430      0.33319539     -0.22891376
    -0.26475087      0.60201552      0.58855513
    -0.07001728     -0.06834312      0.07324587
vibration 87
    -0.00897475      0.04293340      0.00689021
     0.03685542     -0.02536331     -0.05259849
     0.00008864      0.00261681     -0.00053197
    -0.00024741      0.00028946      0.00030944
    -0.00017535      0.00017825      0.00023875
    -0.00664044     -0.01350943      0.01197841
     0.08289179      0.15691169     -0.14798657
     0.09849620     -0.51546615     -0.06847462
    -0.42964852      0.28114395      0.61517760
    -0.00570222      0.00227890      0.00929697
     0.00074768      0.00123803     -0.00148002
     0.00005808      0.00009438     -0.00007440
     0.06536927     -0.02519799     -0.10684244
    -0.00793719     -0.02229576      0.01727048
    -0.00000483     -0.00000546      0.00000033
    -0.00001038     -0.00001374      0.00001097
    -0.00000260      0.00000051      0.00000305
    -0.00000038      0.00000024      0.00000392
     0.00002986      0.00021793     -0.00007440
     0.00012556     -0.00017131     -0.00014734
    -0.00008566     -0.00017697      0.00015249
    -0.00039222     -0.00057783      0.00067313
     0.00000606      0.00000014      0.00000421
     0.00001090      0.00000045      0.00000844
    -0.00000198     -0.00001801     -0.00001583
     0.00000735     -0.00000386      0.00000105
    -0.00012603     -0.00001905     -0.00008508
    -0.00006402     -0.00001068     -0.00004319
    -0.00006131      0.00004749      0.00000661
     0.00001149      0.00021129      0.00018015
     0.00000632      0.00002786     -0.00003576
     0.00015156     -0.00028772      0.00017277
    -0.00000868      0.00007529      0.00001740
    -0.00022369     -0.00008820      0.00018522
vibration 88
    -0.00000330      0.00000763      0.00000023
    -0.00002698      0.00001708      0.00003604
     0.00000113      0.00000260     -0.00000096
     0.00000005     -0.00000230     -0.00001246
     0.00000270      0.00000510      0.00000232
     0.00001922      0.00003150     -0.00003452
    -0.00020381     -0.00037763      0.00036489
     0.00001206     -0.00006467     -0.00000862
     0.00029858     -0.00019998     -0.00042426
    -0.00012826      0.00004210      0.00020527
    -0.00000105      0.00005723     -0.00005605
     0.00020372     -0.00003944      0.00008720
     0.00148112     -0.00048045     -0.00233743
    -0.00016007     -0.00063449      0.00048427
     0.00001290     -0.00000645     -0.00000294
    -0.00006809      0.00020320      0.00021670
     0.00026428     -0.00058938     -0.00033796
    -0.00005438      0.00012890      0.00001726
     0.00000780      0.00000249     -0.00001114
    -0.00003360      0.00001710     -0.00001911
    -0.00000612      0.00000198     -0.00000224
    -0.00009328     -0.00002861      0.00013894
     0.01516727      0.00146437      0.00896853
     0.02018234      0.00400411      0.01458342
    -0.00069678     -0.03552645     -0.03002994
    -0.04909353      0.03837987      0.00619240
    -0.24476926     -0.04217299     -0.17125981
    -0.18220587     -0.03068480     -0.11886063
     0.57992366     -0.44819263     -0.06898804
     0.01649969      0.42393346      0.36276249
     0.00034299     -0.00087869      0.00011217
    -0.00403206      0.00758975     -0.00458060
    -0.00204568      0.00393580      0.00378962
     0.00084900     -0.00012471     -0.00038970
vibration 89
    -0.00180478      0.01000524      0.00118204
     0.00283842     -0.00208789     -0.00403214
    -0.00016962     -0.00165996      0.00056498
    -0.00039740      0.00034027      0.00052282
    -0.00002333     -0.00006685      0.00005147
    -0.00205923     -0.00396556      0.00368159
     0.02463312      0.04680720     -0.04402785
     0.02196212     -0.11528606     -0.01521995
    -0.03371535      0.02473191      0.04781642
     0.04233912     -0.01608571     -0.06926454
    -0.00639663     -0.01263926      0.01297991
    -0.00010160      0.00014415      0.00026599
    -0.48831616      0.17058257      0.80148919
     0.06738321      0.18498199     -0.14534350
    -0.00001849     -0.00000777     -0.00001726
     0.00004941     -0.00006642     -0.00003195
     0.00000404     -0.00000938      0.00001747
    -0.00000945      0.00005584      0.00003126
     0.00005322      0.00014863     -0.00009780
     0.00004730     -0.00007329     -0.00004378
     0.00001242     -0.00011790      0.00000651
    -0.00079014     -0.00062165      0.00121067
     0.00004242      0.00000738      0.00002091
     0.00006060      0.00003195      0.00005295
     0.00000951     -0.00015768     -0.00013003
    -0.00011143      0.00008120      0.00000681
    -0.00088368     -0.00016418     -0.00062549
    -0.00045412     -0.00006491     -0.00030108
     0.00128873     -0.00101203     -0.00015068
     0.00006187      0.00178863      0.00153414
    -0.00009547      0.00014036      0.00003070
     0.00041797     -0.00083163      0.00053936
     0.00043781     -0.00101685     -0.00099463
     0.00009048      0.00014035     -0.00007530
vibration 90
    -0.00008300      0.00054014      0.00004108
    -0.00029206      0.00018253      0.00041702
     0.00000229     -0.00002155     -0.00000092
     0.00000784     -0.00000278     -0.00000540
    -0.00000409      0.00001945      0.00000477
    -0.00023118     -0.00046143      0.00041747
     0.00276972      0.00523429     -0.00494603
     0.00113835     -0.00617617     -0.00076062
     0.00327227     -0.00211656     -0.00469388
    -0.00000670     -0.00000509      0.00000125
    -0.00000652      0.00002914     -0.00000724
    -0.00002045     -0.00009514     -0.00007628
     0.00005362     -0.00000937     -0.00008482
    -0.00009130     -0.00028108      0.00020960
     0.00002878     -0.00007500     -0.00005097
     0.00005561     -0.00005746     -0.00003273
    -0.00040578      0.00195691      0.00140805
     0.00014615      0.00046787      0.00045641
    -0.00000046     -0.00000522      0.00000613
     0.00000167      0.00000847     -0.00000615
    -0.00000075      0.00000050      0.00000344
     0.00001445     -0.00000918     -0.00003122
     0.01587624      0.00122212      0.00915726
    -0.05173386     -0.00999565     -0.03711165
     0.00394130      0.02252508      0.02094872
    -0.03582024      0.02670227      0.00342157
     0.60506943      0.10346825      0.42272177
    -0.18361579     -0.03073150     -0.11962165
     0.40223439     -0.30922958     -0.04657606
    -0.01473851     -0.27057859     -0.23395360
     0.00061613     -0.00090384      0.00012991
    -0.00475162      0.00889794     -0.00545029
    -0.00217370      0.00383995      0.00364068
    -0.00104806     -0.00118296      0.00108377
vibration 91
     0.00609998     -0.04125415     -0.00279440
     0.02508234     -0.01603484     -0.03597508
    -0.00022078      0.00209657      0.00001818
    -0.00047877     -0.00011522      0.00074651
     0.00051506     -0.00170492     -0.00051671
     0.02081658      0.04095933     -0.03736891
    -0.24737984     -0.46689095      0.44136856
    -0.08704521      0.47303288      0.05782809
    -0.28317921      0.18345561      0.40574256
     0.00314194     -0.00122085     -0.00513471
    -0.00052836     -0.00109898      0.00110190
    -0.00007225      0.00001107      0.00011690
    -0.03564402      0.01105167      0.05879621
     0.00531651      0.01405129     -0.01143965
     0.00000249     -0.00000492     -0.00000901
     0.00001709     -0.00000704     -0.00002083
    -0.00001695      0.00002576      0.00000787
     0.00000760      0.00001371      0.00001341
    -0.00021953     -0.00015175      0.00034830
     0.00003572      0.00009479     -0.00007514
     0.00000882      0.00017760     -0.00003758
     0.00249903      0.00216924     -0.00398532
     0.00020101      0.00001574      0.00011635
    -0.00063797     -0.00012161     -0.00045826
     0.00004376      0.00020938      0.00019795
    -0.00039890      0.00029818      0.00003848
     0.00747723      0.00128522      0.00521853
    -0.00232361     -0.00038901     -0.00151930
     0.00451384     -0.00347136     -0.00052913
    -0.00014145     -0.00257585     -0.00223404
    -0.00002147      0.00000256      0.00002228
     0.00002089     -0.00001492     -0.00000273
    -0.00001346     -0.00015026     -0.00015090
     0.00017501      0.00007126     -0.00012614
vibration 92
     0.00030386     -0.00148049     -0.00022462
     0.00030369     -0.00013856     -0.00043982
    -0.00000032      0.00002148     -0.00000341
    -0.00000688      0.00002702      0.00000226
    -0.00001917      0.00005943      0.00001788
    -0.00059022     -0.00102743      0.00104164
     0.00638690      0.01186746     -0.01137065
    -0.00314604      0.01654787      0.00217413
    -0.00322825      0.00202328      0.00462872
    -0.00001076      0.00002959      0.00001598
    -0.00001749     -0.00006756      0.00003348
    -0.00004011      0.00002821     -0.00001828
     0.00015461     -0.00008861     -0.00022138
     0.00013799      0.00053737     -0.00040770
    -0.00000604     -0.00006250     -0.00005447
    -0.00019228      0.00001274     -0.00010367
    -0.00000381      0.00208932      0.00175922
     0.00129846     -0.00106645     -0.00018539
    -0.00000362     -0.00000848      0.00000702
    -0.00000292     -0.00002061      0.00002402
     0.00001761     -0.00000760     -0.00001164
     0.00006087     -0.00001838     -0.00011629
    -0.03308723     -0.00486493     -0.02098382
    -0.04132713     -0.00545034     -0.02751561
    -0.00073088     -0.04590822     -0.03868933
     0.01203032     -0.00617435      0.00117094
     0.45321493      0.07412824      0.31380046
     0.37993466      0.06622830      0.24983424
    -0.11523417      0.08507165      0.01034075
     0.01983022      0.50931732      0.43614564
    -0.00073901      0.00119442     -0.00034407
     0.00703547     -0.01335651      0.00786887
     0.00257225     -0.00442957     -0.00418207
     0.00078336      0.00136866     -0.00109182
vibration 93
     0.01217222     -0.05928247     -0.00913120
     0.01283128     -0.00637651     -0.01867421
    -0.00010960      0.00114676     -0.00000026
     0.00003444      0.00049706     -0.00012718
    -0.00061487      0.00252339      0.00054666
    -0.02288408     -0.03939288      0.04024065
     0.24594342      0.45684556     -0.43761392
    -0.12606115      0.66391296      0.08708536
    -0.13796303      0.08662630      0.19808587
     0.00070956     -0.00018097     -0.00117877
    -0.00028627     -0.00083882      0.00063735
     0.00003464      0.00014121     -0.00003304
    -0.00806085      0.00205429      0.01338060
     0.00321576      0.00865697     -0.00692121
    -0.00000019     -0.00001079     -0.00000340
     0.00002661     -0.00005765     -0.00000932
    -0.00003528     -0.00004381     -0.00005404
    -0.00003841      0.00008630      0.00004972
     0.00056857      0.00026768     -0.00087723
    -0.00005651     -0.00004948      0.00008284
     0.00008587     -0.00028900     -0.00008185
    -0.00667531     -0.00405899      0.01038985
     0.00133868      0.00020709      0.00085938
     0.00091548      0.00012287      0.00061438
     0.00000523      0.00097474      0.00081705
    -0.00012304      0.00000760     -0.00005744
    -0.01000914     -0.00162245     -0.00691931
    -0.01533910     -0.00268160     -0.01010438
     0.00099137     -0.00066935     -0.00003649
    -0.00039520     -0.01090145     -0.00932024
    -0.00001993      0.00002947     -0.00001311
     0.00014367     -0.00025618      0.00018660
    -0.00004587     -0.00005826     -0.00014665
    -0.00008019      0.00000044      0.00000271
vibration 94
     0.00010837     -0.00048027     -0.00008281
     0.00012386     -0.00008116     -0.00016927
    -0.00000500      0.00003578      0.00000123
     0.00001434     -0.00002014     -0.00001897
    -0.00000018      0.00002101     -0.00000901
    -0.00017348     -0.00027766      0.00030363
     0.00180027      0.00335483     -0.00321267
    -0.00102920      0.00543265      0.00070930
    -0.00132557      0.00082661      0.00190563
    -0.00007303      0.00003927      0.00013873
    -0.00014476     -0.00047290      0.00034594
    -0.00008866     -0.00003480      0.00008844
     0.00067191     -0.00019007     -0.00113553
     0.00193917      0.00555565     -0.00431007
    -0.00002247      0.00005298      0.00002633
    -0.00037033      0.00019532     -0.00011648
     0.00043858     -0.00059842     -0.00026263
     0.00208842     -0.00242999     -0.00086913
     0.00003578      0.00004226     -0.00006242
     0.00003282      0.00003622     -0.00001775
    -0.00000320     -0.00000277      0.00002356
    -0.00048743     -0.00017836      0.00072237
    -0.05972594     -0.01117304     -0.03986392
     0.01444849      0.00163185      0.00939179
     0.00220876      0.02184423      0.01940497
    -0.02953742      0.02364002      0.00413598
    -0.15470583     -0.02466001     -0.10656952
     0.68294955      0.12254850      0.45203480
     0.32214109     -0.24941316     -0.03867700
    -0.01187360     -0.24184641     -0.20830016
    -0.00125145      0.00171562     -0.00061130
     0.01116046     -0.02129863      0.01196317
     0.00368850     -0.00532545     -0.00502448
     0.00224869      0.00262858     -0.00249754
vibration 95
    -0.00000735      0.00028238     -0.00003090
    -0.00029360     -0.00007102      0.00045967
     0.00032760      0.00119123     -0.00074981
     0.00004539      0.00032048     -0.00013451
    -0.00005175      0.00001140      0.00006642
     0.00016856      0.00031125     -0.00029861
    -0.00184680     -0.00350976      0.00332734
     0.00062184     -0.00373551     -0.00033668
     0.00286549     -0.00236294     -0.00403743
    -0.01209245      0.00866914      0.01891750
    -0.02124979     -0.06726415      0.04784069
     0.00058267     -0.00128894     -0.00087924
     0.12449707     -0.04641244     -0.20350502
     0.26123297      0.73674316     -0.56737246
    -0.00000641      0.00000333     -0.00003414
    -0.00003369      0.00027445     -0.00003644
     0.00000047      0.00005761      0.00005003
    -0.00013495      0.00007792      0.00003249
     0.00009253     -0.00000888     -0.00014077
     0.00019473      0.00025241     -0.00023291
     0.00006480     -0.00000911     -0.00007687
    -0.00134034     -0.00061697      0.00204523
     0.00047614      0.00010373      0.00032396
    -0.00011797      0.00000026     -0.00006664
     0.00000369     -0.00013608     -0.00010476
     0.00017778     -0.00016668     -0.00004739
     0.00103056      0.00015042      0.00069940
    -0.00527957     -0.00094339     -0.00349043
    -0.00210919      0.00165069      0.00028519
     0.00005369      0.00145816      0.00123040
    -0.00011191      0.00004976      0.00018258
    -0.00049684      0.00072178     -0.00031668
     0.00045541     -0.00175006     -0.00098976
     0.00060009      0.00024048     -0.00059478
vibration 96
     0.00006231      0.00039831     -0.00015695
    -0.00010642     -0.00020646      0.00019192
    -0.00008095      0.00014172      0.00009904
    -0.00029678     -0.00051381      0.00051322
    -0.00175609      0.00207363      0.00228290
     0.00049145      0.00080198     -0.00084986
    -0.00409412     -0.00921721      0.00751988
     0.00131599     -0.00558346     -0.00111991
     0.00079512     -0.00054628     -0.00111570
    -0.00002739     -0.00000465      0.00004202
     0.00007705      0.00020975     -0.00017550
     0.00000996      0.00002270     -0.00005424
     0.00031857      0.00002654     -0.00054357
    -0.00073398     -0.00207676      0.00165240
     0.00000064      0.00000253      0.00000209
    -0.00001939      0.00003732     -0.00000036
     0.00000654     -0.00000281      0.00000790
    -0.00000570     -0.00003277     -0.00001427
     0.04769755      0.01936808     -0.07290540
    -0.00098036     -0.00074798      0.00166810
     0.00003083     -0.00167084      0.00017412
    -0.53289820     -0.21469809      0.81346967
     0.00002960      0.00000631      0.00002018
    -0.00003487     -0.00001115     -0.00003150
    -0.00000666     -0.00002306     -0.00002400
     0.00003471     -0.00002203     -0.00000026
     0.00042366      0.00007564      0.00028646
    -0.00033146     -0.00006319     -0.00022942
    -0.00036818      0.00029531      0.00004684
     0.00001065      0.00032526      0.00027194
     0.00003105      0.00001572     -0.00000486
    -0.00005257      0.00010615     -0.00006622
     0.00004565     -0.00005293     -0.00004203
    -0.00019308     -0.00016786      0.00030299
[INT]
    0.259542
    0.331843
    0.299048
    1.873690
    1.428505
    0.914829
    0.775829
    1.138543
    1.473828
    2.530202
    2.668901
    0.125469
    1.698754
    3.334861
    8.482022
    3.927899
    3.524188
    2.373003
    0.182463
    4.162740
    8.681272
    7.486985
    0.254993
    2.592592
    4.186961
    2.275574
    1.461758
    7.003445
    3.107764
    4.114919
   15.146630
    2.442671
   51.987296
   20.839524
    9.739398
   10.085030
   10.700874
    0.308762
    3.630710
   43.329983
   52.662652
    1.231609
    1.577665
    1.150977
    0.553076
  104.276454
    3.018138
   39.754197
   23.169204
    1.264672
    1.266861
   31.443299
   82.618929
   37.634643
   61.729105
   17.654798
   37.185118
    2.638241
   17.413105
    1.647223
   41.909277
   20.913235
   36.623726
    3.266346
    1.930555
  127.700981
   43.300227
   27.223866
    9.358986
   20.319363
   34.693558
   30.207140
    6.111571
    3.191496
   46.954056
   70.439290
  103.945356
   10.773582
   10.422383
    5.837000
   40.719953
    6.932834
   23.098613
   42.946166
   21.750742
   10.851410
    2.405774
    1.558378
   11.632636
   11.572006
   11.840435
   30.786081
   27.702810
   14.007919
    1.782006
    5.349695

======= END OF MOLDEN-FORMATTED INPUT FILE =======


        *************************************************************
        *                                                           *
        *  Thank you very much for using Q-Chem.  Have a nice day.  *
        *                                                           *
        *************************************************************


0 sent ACK to 0 
now end server 0 ... 
