Process 0 of 1 is on gollum414.lsa.umich.edu - thread support 0
initial socket setup ...start
initial socket setup ...done 
now start server 0 ... 

 Q-chem begins on Mon May 11 19:55:57 2015  

Host: gollum414.lsa.umich.edu
0
 Parallel job on  1  processors
Finally everything over in PARseQInput

--------------------------------------------------------------
User input:
--------------------------------------------------------------
 $rem
 JOBTYPE FREQ
 EXCHANGE B3LYP
! CORRELATION PBE
! UNRESTRICTED TRUE
 SCF_ALGORITHM diis
 SCF_MAX_CYCLES 150
 BASIS LANL2DZ
 ECP LANL2DZ
 WAVEFUNCTION_ANALYSIS FALSE

scf_convergence 6

 SYM_IGNORE TRUE
 SYMMETRY   FALSE

molden_fOrmat TRUe
 $end


$molecule
0 1
  N -6.083953 3.069696 -0.908390
  C -5.151968 2.421675 0.096124
  C -6.960120 1.981635 -1.507624
  C -5.425339 4.008195 -1.937925
  C -6.488598 5.038794 -2.425693
  N -7.290402 5.506327 -1.423717
  O -6.460987 5.448226 -3.612771
  C -8.262333 6.472219 -1.676636
  C -9.293657 6.329549 -2.618063
  C -8.318969 7.628907 -0.878819
  C -9.326354 8.577022 -1.012575
  C -10.321793 8.406735 -1.971183
  C -10.300937 7.272188 -2.775894
  F -9.369029 5.174750 -3.392904
  F -11.300206 7.065353 -3.706724
  F -11.323260 9.342886 -2.108678
  F -9.345563 9.689448 -0.197365
  F -7.352788 7.833796 0.081920
  C -4.312926 4.852403 -1.270100
  C -4.842432 3.228603 -3.126798
  C -7.835223 1.397788 -0.360959
  C -6.001095 1.908642 1.287604
  C -7.484284 2.135590 0.952997
  Pd -7.513557 4.112276 0.164539
  O -9.672801 3.766879 2.711106
  O -8.949728 5.310354 1.207010
  O -10.774087 3.314364 -1.142483
  O -11.688793 3.392279 -3.239732
  C -9.673712 5.006741 2.186574
  C -11.686733 3.012197 -1.926797
  C -10.606422 5.968493 2.841858
  C -12.917748 2.237431 -1.551078
  H -4.431637 3.163600 0.429981
  H -4.605624 1.611796 -0.407898
  H -6.321471 1.220692 -1.972991
  H -7.574361 2.446358 -2.281579
  H -4.668755 5.318536 -0.347035
  H -4.033955 5.651511 -1.963718
  H -3.414306 4.261583 -1.067561
  H -5.610804 2.695786 -3.690385
  H -4.076111 2.516264 -2.797495
  H -4.384930 3.942419 -3.814314
  H -7.651617 0.314786 -0.256256
  H -8.892966 1.534826 -0.602728
  H -5.724144 2.446033 2.200559
  H -5.797281 0.839471 1.467390
  H -8.118158 1.766679 1.773316
  H -9.067704 3.174515 2.189514
  H -10.666975 5.772052 3.913572
  H -11.610509 5.842676 2.418017
  H -10.275349 6.991485 2.654855
  H -12.707967 1.625092 -0.673461
  H -13.265652 1.617108 -2.378544
  H -13.722037 2.940313 -1.297575
  H -10.916678 3.968725 -3.453340
$end
--------------------------------------------------------------
 ----------------------------------------------------
       Standard Nuclear Orientation (Angstroms)
    I     Atom         X            Y            Z
 ----------------------------------------------------
    1      N      -6.083953     3.069696    -0.908390
    2      C      -5.151968     2.421675     0.096124
    3      C      -6.960120     1.981635    -1.507624
    4      C      -5.425339     4.008195    -1.937925
    5      C      -6.488598     5.038794    -2.425693
    6      N      -7.290402     5.506327    -1.423717
    7      O      -6.460987     5.448226    -3.612771
    8      C      -8.262333     6.472219    -1.676636
    9      C      -9.293657     6.329549    -2.618063
   10      C      -8.318969     7.628907    -0.878819
   11      C      -9.326354     8.577022    -1.012575
   12      C     -10.321793     8.406735    -1.971183
   13      C     -10.300937     7.272188    -2.775894
   14      F      -9.369029     5.174750    -3.392904
   15      F     -11.300206     7.065353    -3.706724
   16      F     -11.323260     9.342886    -2.108678
   17      F      -9.345563     9.689448    -0.197365
   18      F      -7.352788     7.833796     0.081920
   19      C      -4.312926     4.852403    -1.270100
   20      C      -4.842432     3.228603    -3.126798
   21      C      -7.835223     1.397788    -0.360959
   22      C      -6.001095     1.908642     1.287604
   23      C      -7.484284     2.135590     0.952997
   24      Pd     -7.513557     4.112276     0.164539
   25      O      -9.672801     3.766879     2.711106
   26      O      -8.949728     5.310354     1.207010
   27      O     -10.774087     3.314364    -1.142483
   28      O     -11.688793     3.392279    -3.239732
   29      C      -9.673712     5.006741     2.186574
   30      C     -11.686733     3.012197    -1.926797
   31      C     -10.606422     5.968493     2.841858
   32      C     -12.917748     2.237431    -1.551078
   33      H      -4.431637     3.163600     0.429981
   34      H      -4.605624     1.611796    -0.407898
   35      H      -6.321471     1.220692    -1.972991
   36      H      -7.574361     2.446358    -2.281579
   37      H      -4.668755     5.318536    -0.347035
   38      H      -4.033955     5.651511    -1.963718
   39      H      -3.414306     4.261583    -1.067561
   40      H      -5.610804     2.695786    -3.690385
   41      H      -4.076111     2.516264    -2.797495
   42      H      -4.384930     3.942419    -3.814314
   43      H      -7.651617     0.314786    -0.256256
   44      H      -8.892966     1.534826    -0.602728
   45      H      -5.724144     2.446033     2.200559
   46      H      -5.797281     0.839471     1.467390
   47      H      -8.118158     1.766679     1.773316
   48      H      -9.067704     3.174515     2.189514
   49      H     -10.666975     5.772052     3.913572
   50      H     -11.610509     5.842676     2.418017
   51      H     -10.275349     6.991485     2.654855
   52      H     -12.707967     1.625092    -0.673461
   53      H     -13.265652     1.617108    -2.378544
   54      H     -13.722037     2.940313    -1.297575
   55      H     -10.916678     3.968725    -3.453340
 ----------------------------------------------------
 Nuclear Repulsion Energy =  4075.1405324298 hartrees
 There are      127 alpha and      127 beta electrons
 Requested basis set is LANL2DZ
 There are 147 shells and 347 basis functions

Total QAlloc Memory Limit   2000 MB
Mega-Array Size        77 MB
MEM_STATIC part        62 MB
 length of FILE_MO_COEFS: 0 
 A cutoff of  1.0D-09 yielded   5606 shell pairs
 There are     36129 function pairs (     36702 Cartesian)
 Requested basis set is LANL2DZ
 Compound shells will be simplified
 There are 209 shells and 347 basis functions
 A cutoff of  1.0D-09 yielded  11906 shell pairs
 There are     35946 function pairs (     36519 Cartesian)
 Smallest overlap matrix eigenvalue = 6.20E-04
 Guess from superposition of atomic densities
 Warning:  Energy on first SCF cycle will be non-variational
 A restricted hybrid HF-DFT SCF calculation will be
 performed using Pulay DIIS extrapolation
 Exchange:     0.2000 Hartree-Fock + 0.0800 Slater + 0.7200 Becke88
 Correlation:  0.8100 LYP + 0.1900 VWN1RPA
 Using SG-1 standard quadrature grid
 ---------------------------------------
  Cycle       Energy         DIIS Error
 ---------------------------------------
    1   -1856.0270077027      5.14E-02
    2   -1848.2054686273      7.35E-03
    3   -1844.8238117496      1.61E-02
    4   -1848.6247789212      4.93E-03
    5   -1848.9595429083      1.06E-03
    6   -1848.9490885090      1.41E-03
    7   -1848.9755460213      3.81E-04
    8   -1848.9774477343      1.36E-04
    9   -1848.9776741573      4.42E-05
   10   -1848.9777017896      1.63E-05
   11   -1848.9777054063      5.23E-06
   12   -1848.9777057643      3.54E-06
   13   -1848.9777057785      9.68E-07 Convergence criterion met
 ---------------------------------------
 SCF time:  CPU 484.86 s  wall 490.28 s
 SCF   energy in the final basis set = -1848.9777057785
 Total energy in the final basis set = -1848.9777057785
 No wavefunction analysis requested
 Finite diff step size: 1.89e-03 a.u.
 ----------------------------------------------------
       Standard Nuclear Orientation (Angstroms)
    I     Atom         X            Y            Z
 ----------------------------------------------------
    1      N      -6.082953     3.069696    -0.908390
    2      C      -5.151968     2.421675     0.096124
    3      C      -6.960120     1.981635    -1.507624
    4      C      -5.425339     4.008195    -1.937925
    5      C      -6.488598     5.038794    -2.425693
    6      N      -7.290402     5.506327    -1.423717
    7      O      -6.460987     5.448226    -3.612771
    8      C      -8.262333     6.472219    -1.676636
    9      C      -9.293657     6.329549    -2.618063
   10      C      -8.318969     7.628907    -0.878819
   11      C      -9.326354     8.577022    -1.012575
   12      C     -10.321793     8.406735    -1.971183
   13      C     -10.300937     7.272188    -2.775894
   14      F      -9.369029     5.174750    -3.392904
   15      F     -11.300206     7.065353    -3.706724
   16      F     -11.323260     9.342886    -2.108678
   17      F      -9.345563     9.689448    -0.197365
   18      F      -7.352788     7.833796     0.081920
   19      C      -4.312926     4.852403    -1.270100
   20      C      -4.842432     3.228603    -3.126798
   21      C      -7.835223     1.397788    -0.360959
   22      C      -6.001095     1.908642     1.287604
   23      C      -7.484284     2.135590     0.952997
   24      Pd     -7.513557     4.112276     0.164539
   25      O      -9.672801     3.766879     2.711106
   26      O      -8.949728     5.310354     1.207010
   27      O     -10.774087     3.314364    -1.142483
   28      O     -11.688793     3.392279    -3.239732
   29      C      -9.673712     5.006741     2.186574
   30      C     -11.686733     3.012197    -1.926797
   31      C     -10.606422     5.968493     2.841858
   32      C     -12.917748     2.237431    -1.551078
   33      H      -4.431637     3.163600     0.429981
   34      H      -4.605624     1.611796    -0.407898
   35      H      -6.321471     1.220692    -1.972991
   36      H      -7.574361     2.446358    -2.281579
   37      H      -4.668755     5.318536    -0.347035
   38      H      -4.033955     5.651511    -1.963718
   39      H      -3.414306     4.261583    -1.067561
   40      H      -5.610804     2.695786    -3.690385
   41      H      -4.076111     2.516264    -2.797495
   42      H      -4.384930     3.942419    -3.814314
   43      H      -7.651617     0.314786    -0.256256
   44      H      -8.892966     1.534826    -0.602728
   45      H      -5.724144     2.446033     2.200559
   46      H      -5.797281     0.839471     1.467390
   47      H      -8.118158     1.766679     1.773316
   48      H      -9.067704     3.174515     2.189514
   49      H     -10.666975     5.772052     3.913572
   50      H     -11.610509     5.842676     2.418017
   51      H     -10.275349     6.991485     2.654855
   52      H     -12.707967     1.625092    -0.673461
   53      H     -13.265652     1.617108    -2.378544
   54      H     -13.722037     2.940313    -1.297575
   55      H     -10.916678     3.968725    -3.453340
 ----------------------------------------------------
 Nuclear Repulsion Energy =  4075.1211226669 hartrees
 There are      127 alpha and      127 beta electrons
 Requested basis set is LANL2DZ
 There are 147 shells and 347 basis functions
 A cutoff of  1.0D-09 yielded   5606 shell pairs
 There are     36129 function pairs (     36702 Cartesian)
 Requested basis set is LANL2DZ
 Compound shells will be simplified
 There are 209 shells and 347 basis functions
 A cutoff of  1.0D-09 yielded  11906 shell pairs
 There are     35946 function pairs (     36519 Cartesian)
 ----------------------------------------------------
       Standard Nuclear Orientation (Angstroms)
    I     Atom         X            Y            Z
 ----------------------------------------------------
    1      N      -6.084953     3.069696    -0.908390
    2      C      -5.151968     2.421675     0.096124
    3      C      -6.960120     1.981635    -1.507624
    4      C      -5.425339     4.008195    -1.937925
    5      C      -6.488598     5.038794    -2.425693
    6      N      -7.290402     5.506327    -1.423717
    7      O      -6.460987     5.448226    -3.612771
    8      C      -8.262333     6.472219    -1.676636
    9      C      -9.293657     6.329549    -2.618063
   10      C      -8.318969     7.628907    -0.878819
   11      C      -9.326354     8.577022    -1.012575
   12      C     -10.321793     8.406735    -1.971183
   13      C     -10.300937     7.272188    -2.775894
   14      F      -9.369029     5.174750    -3.392904
   15      F     -11.300206     7.065353    -3.706724
   16      F     -11.323260     9.342886    -2.108678
   17      F      -9.345563     9.689448    -0.197365
   18      F      -7.352788     7.833796     0.081920
   19      C      -4.312926     4.852403    -1.270100
   20      C      -4.842432     3.228603    -3.126798
   21      C      -7.835223     1.397788    -0.360959
   22      C      -6.001095     1.908642     1.287604
   23      C      -7.484284     2.135590     0.952997
   24      Pd     -7.513557     4.112276     0.164539
   25      O      -9.672801     3.766879     2.711106
   26      O      -8.949728     5.310354     1.207010
   27      O     -10.774087     3.314364    -1.142483
   28      O     -11.688793     3.392279    -3.239732
   29      C      -9.673712     5.006741     2.186574
   30      C     -11.686733     3.012197    -1.926797
   31      C     -10.606422     5.968493     2.841858
   32      C     -12.917748     2.237431    -1.551078
   33      H      -4.431637     3.163600     0.429981
   34      H      -4.605624     1.611796    -0.407898
   35      H      -6.321471     1.220692    -1.972991
   36      H      -7.574361     2.446358    -2.281579
   37      H      -4.668755     5.318536    -0.347035
   38      H      -4.033955     5.651511    -1.963718
   39      H      -3.414306     4.261583    -1.067561
   40      H      -5.610804     2.695786    -3.690385
   41      H      -4.076111     2.516264    -2.797495
   42      H      -4.384930     3.942419    -3.814314
   43      H      -7.651617     0.314786    -0.256256
   44      H      -8.892966     1.534826    -0.602728
   45      H      -5.724144     2.446033     2.200559
   46      H      -5.797281     0.839471     1.467390
   47      H      -8.118158     1.766679     1.773316
   48      H      -9.067704     3.174515     2.189514
   49      H     -10.666975     5.772052     3.913572
   50      H     -11.610509     5.842676     2.418017
   51      H     -10.275349     6.991485     2.654855
   52      H     -12.707967     1.625092    -0.673461
   53      H     -13.265652     1.617108    -2.378544
   54      H     -13.722037     2.940313    -1.297575
   55      H     -10.916678     3.968725    -3.453340
 ----------------------------------------------------
 Nuclear Repulsion Energy =  4075.1599424093 hartrees
 There are      127 alpha and      127 beta electrons
 Requested basis set is LANL2DZ
 There are 147 shells and 347 basis functions
 A cutoff of  1.0D-09 yielded   5606 shell pairs
 There are     36129 function pairs (     36702 Cartesian)
 Requested basis set is LANL2DZ
 Compound shells will be simplified
 There are 209 shells and 347 basis functions
 A cutoff of  1.0D-09 yielded  11906 shell pairs
 There are     35946 function pairs (     36519 Cartesian)
 ----------------------------------------------------
       Standard Nuclear Orientation (Angstroms)
    I     Atom         X            Y            Z
 ----------------------------------------------------
    1      N      -6.083953     3.070696    -0.908390
    2      C      -5.151968     2.421675     0.096124
    3      C      -6.960120     1.981635    -1.507624
    4      C      -5.425339     4.008195    -1.937925
    5      C      -6.488598     5.038794    -2.425693
    6      N      -7.290402     5.506327    -1.423717
    7      O      -6.460987     5.448226    -3.612771
    8      C      -8.262333     6.472219    -1.676636
    9      C      -9.293657     6.329549    -2.618063
   10      C      -8.318969     7.628907    -0.878819
   11      C      -9.326354     8.577022    -1.012575
   12      C     -10.321793     8.406735    -1.971183
   13      C     -10.300937     7.272188    -2.775894
   14      F      -9.369029     5.174750    -3.392904
   15      F     -11.300206     7.065353    -3.706724
   16      F     -11.323260     9.342886    -2.108678
   17      F      -9.345563     9.689448    -0.197365
   18      F      -7.352788     7.833796     0.081920
   19      C      -4.312926     4.852403    -1.270100
   20      C      -4.842432     3.228603    -3.126798
   21      C      -7.835223     1.397788    -0.360959
   22      C      -6.001095     1.908642     1.287604
   23      C      -7.484284     2.135590     0.952997
   24      Pd     -7.513557     4.112276     0.164539
   25      O      -9.672801     3.766879     2.711106
   26      O      -8.949728     5.310354     1.207010
   27      O     -10.774087     3.314364    -1.142483
   28      O     -11.688793     3.392279    -3.239732
   29      C      -9.673712     5.006741     2.186574
   30      C     -11.686733     3.012197    -1.926797
   31      C     -10.606422     5.968493     2.841858
   32      C     -12.917748     2.237431    -1.551078
   33      H      -4.431637     3.163600     0.429981
   34      H      -4.605624     1.611796    -0.407898
   35      H      -6.321471     1.220692    -1.972991
   36      H      -7.574361     2.446358    -2.281579
   37      H      -4.668755     5.318536    -0.347035
   38      H      -4.033955     5.651511    -1.963718
   39      H      -3.414306     4.261583    -1.067561
   40      H      -5.610804     2.695786    -3.690385
   41      H      -4.076111     2.516264    -2.797495
   42      H      -4.384930     3.942419    -3.814314
   43      H      -7.651617     0.314786    -0.256256
   44      H      -8.892966     1.534826    -0.602728
   45      H      -5.724144     2.446033     2.200559
   46      H      -5.797281     0.839471     1.467390
   47      H      -8.118158     1.766679     1.773316
   48      H      -9.067704     3.174515     2.189514
   49      H     -10.666975     5.772052     3.913572
   50      H     -11.610509     5.842676     2.418017
   51      H     -10.275349     6.991485     2.654855
   52      H     -12.707967     1.625092    -0.673461
   53      H     -13.265652     1.617108    -2.378544
   54      H     -13.722037     2.940313    -1.297575
   55      H     -10.916678     3.968725    -3.453340
 ----------------------------------------------------
 Nuclear Repulsion Energy =  4075.1545607429 hartrees
 There are      127 alpha and      127 beta electrons
 Requested basis set is LANL2DZ
 There are 147 shells and 347 basis functions
 A cutoff of  1.0D-09 yielded   5606 shell pairs
 There are     36129 function pairs (     36702 Cartesian)
 Requested basis set is LANL2DZ
 Compound shells will be simplified
 There are 209 shells and 347 basis functions
 A cutoff of  1.0D-09 yielded  11906 shell pairs
 There are     35946 function pairs (     36519 Cartesian)
 ----------------------------------------------------
       Standard Nuclear Orientation (Angstroms)
    I     Atom         X            Y            Z
 ----------------------------------------------------
    1      N      -6.083953     3.068696    -0.908390
    2      C      -5.151968     2.421675     0.096124
    3      C      -6.960120     1.981635    -1.507624
    4      C      -5.425339     4.008195    -1.937925
    5      C      -6.488598     5.038794    -2.425693
    6      N      -7.290402     5.506327    -1.423717
    7      O      -6.460987     5.448226    -3.612771
    8      C      -8.262333     6.472219    -1.676636
    9      C      -9.293657     6.329549    -2.618063
   10      C      -8.318969     7.628907    -0.878819
   11      C      -9.326354     8.577022    -1.012575
   12      C     -10.321793     8.406735    -1.971183
   13      C     -10.300937     7.272188    -2.775894
   14      F      -9.369029     5.174750    -3.392904
   15      F     -11.300206     7.065353    -3.706724
   16      F     -11.323260     9.342886    -2.108678
   17      F      -9.345563     9.689448    -0.197365
   18      F      -7.352788     7.833796     0.081920
   19      C      -4.312926     4.852403    -1.270100
   20      C      -4.842432     3.228603    -3.126798
   21      C      -7.835223     1.397788    -0.360959
   22      C      -6.001095     1.908642     1.287604
   23      C      -7.484284     2.135590     0.952997
   24      Pd     -7.513557     4.112276     0.164539
   25      O      -9.672801     3.766879     2.711106
   26      O      -8.949728     5.310354     1.207010
   27      O     -10.774087     3.314364    -1.142483
   28      O     -11.688793     3.392279    -3.239732
   29      C      -9.673712     5.006741     2.186574
   30      C     -11.686733     3.012197    -1.926797
   31      C     -10.606422     5.968493     2.841858
   32      C     -12.917748     2.237431    -1.551078
   33      H      -4.431637     3.163600     0.429981
   34      H      -4.605624     1.611796    -0.407898
   35      H      -6.321471     1.220692    -1.972991
   36      H      -7.574361     2.446358    -2.281579
   37      H      -4.668755     5.318536    -0.347035
   38      H      -4.033955     5.651511    -1.963718
   39      H      -3.414306     4.261583    -1.067561
   40      H      -5.610804     2.695786    -3.690385
   41      H      -4.076111     2.516264    -2.797495
   42      H      -4.384930     3.942419    -3.814314
   43      H      -7.651617     0.314786    -0.256256
   44      H      -8.892966     1.534826    -0.602728
   45      H      -5.724144     2.446033     2.200559
   46      H      -5.797281     0.839471     1.467390
   47      H      -8.118158     1.766679     1.773316
   48      H      -9.067704     3.174515     2.189514
   49      H     -10.666975     5.772052     3.913572
   50      H     -11.610509     5.842676     2.418017
   51      H     -10.275349     6.991485     2.654855
   52      H     -12.707967     1.625092    -0.673461
   53      H     -13.265652     1.617108    -2.378544
   54      H     -13.722037     2.940313    -1.297575
   55      H     -10.916678     3.968725    -3.453340
 ----------------------------------------------------
 Nuclear Repulsion Energy =  4075.1265049564 hartrees
 There are      127 alpha and      127 beta electrons
 Requested basis set is LANL2DZ
 There are 147 shells and 347 basis functions
 A cutoff of  1.0D-09 yielded   5606 shell pairs
 There are     36129 function pairs (     36702 Cartesian)
 Requested basis set is LANL2DZ
 Compound shells will be simplified
 There are 209 shells and 347 basis functions
 A cutoff of  1.0D-09 yielded  11906 shell pairs
 There are     35946 function pairs (     36519 Cartesian)
 ----------------------------------------------------
       Standard Nuclear Orientation (Angstroms)
    I     Atom         X            Y            Z
 ----------------------------------------------------
    1      N      -6.083953     3.069696    -0.907390
    2      C      -5.151968     2.421675     0.096124
    3      C      -6.960120     1.981635    -1.507624
    4      C      -5.425339     4.008195    -1.937925
    5      C      -6.488598     5.038794    -2.425693
    6      N      -7.290402     5.506327    -1.423717
    7      O      -6.460987     5.448226    -3.612771
    8      C      -8.262333     6.472219    -1.676636
    9      C      -9.293657     6.329549    -2.618063
   10      C      -8.318969     7.628907    -0.878819
   11      C      -9.326354     8.577022    -1.012575
   12      C     -10.321793     8.406735    -1.971183
   13      C     -10.300937     7.272188    -2.775894
   14      F      -9.369029     5.174750    -3.392904
   15      F     -11.300206     7.065353    -3.706724
   16      F     -11.323260     9.342886    -2.108678
   17      F      -9.345563     9.689448    -0.197365
   18      F      -7.352788     7.833796     0.081920
   19      C      -4.312926     4.852403    -1.270100
   20      C      -4.842432     3.228603    -3.126798
   21      C      -7.835223     1.397788    -0.360959
   22      C      -6.001095     1.908642     1.287604
   23      C      -7.484284     2.135590     0.952997
   24      Pd     -7.513557     4.112276     0.164539
   25      O      -9.672801     3.766879     2.711106
   26      O      -8.949728     5.310354     1.207010
   27      O     -10.774087     3.314364    -1.142483
   28      O     -11.688793     3.392279    -3.239732
   29      C      -9.673712     5.006741     2.186574
   30      C     -11.686733     3.012197    -1.926797
   31      C     -10.606422     5.968493     2.841858
   32      C     -12.917748     2.237431    -1.551078
   33      H      -4.431637     3.163600     0.429981
   34      H      -4.605624     1.611796    -0.407898
   35      H      -6.321471     1.220692    -1.972991
   36      H      -7.574361     2.446358    -2.281579
   37      H      -4.668755     5.318536    -0.347035
   38      H      -4.033955     5.651511    -1.963718
   39      H      -3.414306     4.261583    -1.067561
   40      H      -5.610804     2.695786    -3.690385
   41      H      -4.076111     2.516264    -2.797495
   42      H      -4.384930     3.942419    -3.814314
   43      H      -7.651617     0.314786    -0.256256
   44      H      -8.892966     1.534826    -0.602728
   45      H      -5.724144     2.446033     2.200559
   46      H      -5.797281     0.839471     1.467390
   47      H      -8.118158     1.766679     1.773316
   48      H      -9.067704     3.174515     2.189514
   49      H     -10.666975     5.772052     3.913572
   50      H     -11.610509     5.842676     2.418017
   51      H     -10.275349     6.991485     2.654855
   52      H     -12.707967     1.625092    -0.673461
   53      H     -13.265652     1.617108    -2.378544
   54      H     -13.722037     2.940313    -1.297575
   55      H     -10.916678     3.968725    -3.453340
 ----------------------------------------------------
 Nuclear Repulsion Energy =  4075.1437569032 hartrees
 There are      127 alpha and      127 beta electrons
 Requested basis set is LANL2DZ
 There are 147 shells and 347 basis functions
 A cutoff of  1.0D-09 yielded   5606 shell pairs
 There are     36129 function pairs (     36702 Cartesian)
 Requested basis set is LANL2DZ
 Compound shells will be simplified
 There are 209 shells and 347 basis functions
 A cutoff of  1.0D-09 yielded  11906 shell pairs
 There are     35946 function pairs (     36519 Cartesian)
 ----------------------------------------------------
       Standard Nuclear Orientation (Angstroms)
    I     Atom         X            Y            Z
 ----------------------------------------------------
    1      N      -6.083953     3.069696    -0.909390
    2      C      -5.151968     2.421675     0.096124
    3      C      -6.960120     1.981635    -1.507624
    4      C      -5.425339     4.008195    -1.937925
    5      C      -6.488598     5.038794    -2.425693
    6      N      -7.290402     5.506327    -1.423717
    7      O      -6.460987     5.448226    -3.612771
    8      C      -8.262333     6.472219    -1.676636
    9      C      -9.293657     6.329549    -2.618063
   10      C      -8.318969     7.628907    -0.878819
   11      C      -9.326354     8.577022    -1.012575
   12      C     -10.321793     8.406735    -1.971183
   13      C     -10.300937     7.272188    -2.775894
   14      F      -9.369029     5.174750    -3.392904
   15      F     -11.300206     7.065353    -3.706724
   16      F     -11.323260     9.342886    -2.108678
   17      F      -9.345563     9.689448    -0.197365
   18      F      -7.352788     7.833796     0.081920
   19      C      -4.312926     4.852403    -1.270100
   20      C      -4.842432     3.228603    -3.126798
   21      C      -7.835223     1.397788    -0.360959
   22      C      -6.001095     1.908642     1.287604
   23      C      -7.484284     2.135590     0.952997
   24      Pd     -7.513557     4.112276     0.164539
   25      O      -9.672801     3.766879     2.711106
   26      O      -8.949728     5.310354     1.207010
   27      O     -10.774087     3.314364    -1.142483
   28      O     -11.688793     3.392279    -3.239732
   29      C      -9.673712     5.006741     2.186574
   30      C     -11.686733     3.012197    -1.926797
   31      C     -10.606422     5.968493     2.841858
   32      C     -12.917748     2.237431    -1.551078
   33      H      -4.431637     3.163600     0.429981
   34      H      -4.605624     1.611796    -0.407898
   35      H      -6.321471     1.220692    -1.972991
   36      H      -7.574361     2.446358    -2.281579
   37      H      -4.668755     5.318536    -0.347035
   38      H      -4.033955     5.651511    -1.963718
   39      H      -3.414306     4.261583    -1.067561
   40      H      -5.610804     2.695786    -3.690385
   41      H      -4.076111     2.516264    -2.797495
   42      H      -4.384930     3.942419    -3.814314
   43      H      -7.651617     0.314786    -0.256256
   44      H      -8.892966     1.534826    -0.602728
   45      H      -5.724144     2.446033     2.200559
   46      H      -5.797281     0.839471     1.467390
   47      H      -8.118158     1.766679     1.773316
   48      H      -9.067704     3.174515     2.189514
   49      H     -10.666975     5.772052     3.913572
   50      H     -11.610509     5.842676     2.418017
   51      H     -10.275349     6.991485     2.654855
   52      H     -12.707967     1.625092    -0.673461
   53      H     -13.265652     1.617108    -2.378544
   54      H     -13.722037     2.940313    -1.297575
   55      H     -10.916678     3.968725    -3.453340
 ----------------------------------------------------
 Nuclear Repulsion Energy =  4075.1373069003 hartrees
 There are      127 alpha and      127 beta electrons
 Requested basis set is LANL2DZ
 There are 147 shells and 347 basis functions
 A cutoff of  1.0D-09 yielded   5606 shell pairs
 There are     36129 function pairs (     36702 Cartesian)
 Requested basis set is LANL2DZ
 Compound shells will be simplified
 There are 209 shells and 347 basis functions
 A cutoff of  1.0D-09 yielded  11906 shell pairs
 There are     35946 function pairs (     36519 Cartesian)
 ----------------------------------------------------
       Standard Nuclear Orientation (Angstroms)
    I     Atom         X            Y            Z
 ----------------------------------------------------
    1      N      -6.083953     3.069696    -0.908390
    2      C      -5.150968     2.421675     0.096124
    3      C      -6.960120     1.981635    -1.507624
    4      C      -5.425339     4.008195    -1.937925
    5      C      -6.488598     5.038794    -2.425693
    6      N      -7.290402     5.506327    -1.423717
    7      O      -6.460987     5.448226    -3.612771
    8      C      -8.262333     6.472219    -1.676636
    9      C      -9.293657     6.329549    -2.618063
   10      C      -8.318969     7.628907    -0.878819
   11      C      -9.326354     8.577022    -1.012575
   12      C     -10.321793     8.406735    -1.971183
   13      C     -10.300937     7.272188    -2.775894
   14      F      -9.369029     5.174750    -3.392904
   15      F     -11.300206     7.065353    -3.706724
   16      F     -11.323260     9.342886    -2.108678
   17      F      -9.345563     9.689448    -0.197365
   18      F      -7.352788     7.833796     0.081920
   19      C      -4.312926     4.852403    -1.270100
   20      C      -4.842432     3.228603    -3.126798
   21      C      -7.835223     1.397788    -0.360959
   22      C      -6.001095     1.908642     1.287604
   23      C      -7.484284     2.135590     0.952997
   24      Pd     -7.513557     4.112276     0.164539
   25      O      -9.672801     3.766879     2.711106
   26      O      -8.949728     5.310354     1.207010
   27      O     -10.774087     3.314364    -1.142483
   28      O     -11.688793     3.392279    -3.239732
   29      C      -9.673712     5.006741     2.186574
   30      C     -11.686733     3.012197    -1.926797
   31      C     -10.606422     5.968493     2.841858
   32      C     -12.917748     2.237431    -1.551078
   33      H      -4.431637     3.163600     0.429981
   34      H      -4.605624     1.611796    -0.407898
   35      H      -6.321471     1.220692    -1.972991
   36      H      -7.574361     2.446358    -2.281579
   37      H      -4.668755     5.318536    -0.347035
   38      H      -4.033955     5.651511    -1.963718
   39      H      -3.414306     4.261583    -1.067561
   40      H      -5.610804     2.695786    -3.690385
   41      H      -4.076111     2.516264    -2.797495
   42      H      -4.384930     3.942419    -3.814314
   43      H      -7.651617     0.314786    -0.256256
   44      H      -8.892966     1.534826    -0.602728
   45      H      -5.724144     2.446033     2.200559
   46      H      -5.797281     0.839471     1.467390
   47      H      -8.118158     1.766679     1.773316
   48      H      -9.067704     3.174515     2.189514
   49      H     -10.666975     5.772052     3.913572
   50      H     -11.610509     5.842676     2.418017
   51      H     -10.275349     6.991485     2.654855
   52      H     -12.707967     1.625092    -0.673461
   53      H     -13.265652     1.617108    -2.378544
   54      H     -13.722037     2.940313    -1.297575
   55      H     -10.916678     3.968725    -3.453340
 ----------------------------------------------------
 Nuclear Repulsion Energy =  4075.1110920178 hartrees
 There are      127 alpha and      127 beta electrons
 Requested basis set is LANL2DZ
 There are 147 shells and 347 basis functions
 A cutoff of  1.0D-09 yielded   5606 shell pairs
 There are     36129 function pairs (     36702 Cartesian)
 Requested basis set is LANL2DZ
 Compound shells will be simplified
 There are 209 shells and 347 basis functions
 A cutoff of  1.0D-09 yielded  11906 shell pairs
 There are     35946 function pairs (     36519 Cartesian)
 ----------------------------------------------------
       Standard Nuclear Orientation (Angstroms)
    I     Atom         X            Y            Z
 ----------------------------------------------------
    1      N      -6.083953     3.069696    -0.908390
    2      C      -5.152968     2.421675     0.096124
    3      C      -6.960120     1.981635    -1.507624
    4      C      -5.425339     4.008195    -1.937925
    5      C      -6.488598     5.038794    -2.425693
    6      N      -7.290402     5.506327    -1.423717
    7      O      -6.460987     5.448226    -3.612771
    8      C      -8.262333     6.472219    -1.676636
    9      C      -9.293657     6.329549    -2.618063
   10      C      -8.318969     7.628907    -0.878819
   11      C      -9.326354     8.577022    -1.012575
   12      C     -10.321793     8.406735    -1.971183
   13      C     -10.300937     7.272188    -2.775894
   14      F      -9.369029     5.174750    -3.392904
   15      F     -11.300206     7.065353    -3.706724
   16      F     -11.323260     9.342886    -2.108678
   17      F      -9.345563     9.689448    -0.197365
   18      F      -7.352788     7.833796     0.081920
   19      C      -4.312926     4.852403    -1.270100
   20      C      -4.842432     3.228603    -3.126798
   21      C      -7.835223     1.397788    -0.360959
   22      C      -6.001095     1.908642     1.287604
   23      C      -7.484284     2.135590     0.952997
   24      Pd     -7.513557     4.112276     0.164539
   25      O      -9.672801     3.766879     2.711106
   26      O      -8.949728     5.310354     1.207010
   27      O     -10.774087     3.314364    -1.142483
   28      O     -11.688793     3.392279    -3.239732
   29      C      -9.673712     5.006741     2.186574
   30      C     -11.686733     3.012197    -1.926797
   31      C     -10.606422     5.968493     2.841858
   32      C     -12.917748     2.237431    -1.551078
   33      H      -4.431637     3.163600     0.429981
   34      H      -4.605624     1.611796    -0.407898
   35      H      -6.321471     1.220692    -1.972991
   36      H      -7.574361     2.446358    -2.281579
   37      H      -4.668755     5.318536    -0.347035
   38      H      -4.033955     5.651511    -1.963718
   39      H      -3.414306     4.261583    -1.067561
   40      H      -5.610804     2.695786    -3.690385
   41      H      -4.076111     2.516264    -2.797495
   42      H      -4.384930     3.942419    -3.814314
   43      H      -7.651617     0.314786    -0.256256
   44      H      -8.892966     1.534826    -0.602728
   45      H      -5.724144     2.446033     2.200559
   46      H      -5.797281     0.839471     1.467390
   47      H      -8.118158     1.766679     1.773316
   48      H      -9.067704     3.174515     2.189514
   49      H     -10.666975     5.772052     3.913572
   50      H     -11.610509     5.842676     2.418017
   51      H     -10.275349     6.991485     2.654855
   52      H     -12.707967     1.625092    -0.673461
   53      H     -13.265652     1.617108    -2.378544
   54      H     -13.722037     2.940313    -1.297575
   55      H     -10.916678     3.968725    -3.453340
 ----------------------------------------------------
 Nuclear Repulsion Energy =  4075.1699776171 hartrees
 There are      127 alpha and      127 beta electrons
 Requested basis set is LANL2DZ
 There are 147 shells and 347 basis functions
 A cutoff of  1.0D-09 yielded   5607 shell pairs
 There are     36145 function pairs (     36718 Cartesian)
 Requested basis set is LANL2DZ
 Compound shells will be simplified
 There are 209 shells and 347 basis functions
 A cutoff of  1.0D-09 yielded  11908 shell pairs
 There are     35956 function pairs (     36529 Cartesian)
 ----------------------------------------------------
       Standard Nuclear Orientation (Angstroms)
    I     Atom         X            Y            Z
 ----------------------------------------------------
    1      N      -6.083953     3.069696    -0.908390
    2      C      -5.151968     2.422675     0.096124
    3      C      -6.960120     1.981635    -1.507624
    4      C      -5.425339     4.008195    -1.937925
    5      C      -6.488598     5.038794    -2.425693
    6      N      -7.290402     5.506327    -1.423717
    7      O      -6.460987     5.448226    -3.612771
    8      C      -8.262333     6.472219    -1.676636
    9      C      -9.293657     6.329549    -2.618063
   10      C      -8.318969     7.628907    -0.878819
   11      C      -9.326354     8.577022    -1.012575
   12      C     -10.321793     8.406735    -1.971183
   13      C     -10.300937     7.272188    -2.775894
   14      F      -9.369029     5.174750    -3.392904
   15      F     -11.300206     7.065353    -3.706724
   16      F     -11.323260     9.342886    -2.108678
   17      F      -9.345563     9.689448    -0.197365
   18      F      -7.352788     7.833796     0.081920
   19      C      -4.312926     4.852403    -1.270100
   20      C      -4.842432     3.228603    -3.126798
   21      C      -7.835223     1.397788    -0.360959
   22      C      -6.001095     1.908642     1.287604
   23      C      -7.484284     2.135590     0.952997
   24      Pd     -7.513557     4.112276     0.164539
   25      O      -9.672801     3.766879     2.711106
   26      O      -8.949728     5.310354     1.207010
   27      O     -10.774087     3.314364    -1.142483
   28      O     -11.688793     3.392279    -3.239732
   29      C      -9.673712     5.006741     2.186574
   30      C     -11.686733     3.012197    -1.926797
   31      C     -10.606422     5.968493     2.841858
   32      C     -12.917748     2.237431    -1.551078
   33      H      -4.431637     3.163600     0.429981
   34      H      -4.605624     1.611796    -0.407898
   35      H      -6.321471     1.220692    -1.972991
   36      H      -7.574361     2.446358    -2.281579
   37      H      -4.668755     5.318536    -0.347035
   38      H      -4.033955     5.651511    -1.963718
   39      H      -3.414306     4.261583    -1.067561
   40      H      -5.610804     2.695786    -3.690385
   41      H      -4.076111     2.516264    -2.797495
   42      H      -4.384930     3.942419    -3.814314
   43      H      -7.651617     0.314786    -0.256256
   44      H      -8.892966     1.534826    -0.602728
   45      H      -5.724144     2.446033     2.200559
   46      H      -5.797281     0.839471     1.467390
   47      H      -8.118158     1.766679     1.773316
   48      H      -9.067704     3.174515     2.189514
   49      H     -10.666975     5.772052     3.913572
   50      H     -11.610509     5.842676     2.418017
   51      H     -10.275349     6.991485     2.654855
   52      H     -12.707967     1.625092    -0.673461
   53      H     -13.265652     1.617108    -2.378544
   54      H     -13.722037     2.940313    -1.297575
   55      H     -10.916678     3.968725    -3.453340
 ----------------------------------------------------
 Nuclear Repulsion Energy =  4075.1560731279 hartrees
 There are      127 alpha and      127 beta electrons
 Requested basis set is LANL2DZ
 There are 147 shells and 347 basis functions
 A cutoff of  1.0D-09 yielded   5606 shell pairs
 There are     36129 function pairs (     36702 Cartesian)
 Requested basis set is LANL2DZ
 Compound shells will be simplified
 There are 209 shells and 347 basis functions
 A cutoff of  1.0D-09 yielded  11906 shell pairs
 There are     35946 function pairs (     36519 Cartesian)
 ----------------------------------------------------
       Standard Nuclear Orientation (Angstroms)
    I     Atom         X            Y            Z
 ----------------------------------------------------
    1      N      -6.083953     3.069696    -0.908390
    2      C      -5.151968     2.420675     0.096124
    3      C      -6.960120     1.981635    -1.507624
    4      C      -5.425339     4.008195    -1.937925
    5      C      -6.488598     5.038794    -2.425693
    6      N      -7.290402     5.506327    -1.423717
    7      O      -6.460987     5.448226    -3.612771
    8      C      -8.262333     6.472219    -1.676636
    9      C      -9.293657     6.329549    -2.618063
   10      C      -8.318969     7.628907    -0.878819
   11      C      -9.326354     8.577022    -1.012575
   12      C     -10.321793     8.406735    -1.971183
   13      C     -10.300937     7.272188    -2.775894
   14      F      -9.369029     5.174750    -3.392904
   15      F     -11.300206     7.065353    -3.706724
   16      F     -11.323260     9.342886    -2.108678
   17      F      -9.345563     9.689448    -0.197365
   18      F      -7.352788     7.833796     0.081920
   19      C      -4.312926     4.852403    -1.270100
   20      C      -4.842432     3.228603    -3.126798
   21      C      -7.835223     1.397788    -0.360959
   22      C      -6.001095     1.908642     1.287604
   23      C      -7.484284     2.135590     0.952997
   24      Pd     -7.513557     4.112276     0.164539
   25      O      -9.672801     3.766879     2.711106
   26      O      -8.949728     5.310354     1.207010
   27      O     -10.774087     3.314364    -1.142483
   28      O     -11.688793     3.392279    -3.239732
   29      C      -9.673712     5.006741     2.186574
   30      C     -11.686733     3.012197    -1.926797
   31      C     -10.606422     5.968493     2.841858
   32      C     -12.917748     2.237431    -1.551078
   33      H      -4.431637     3.163600     0.429981
   34      H      -4.605624     1.611796    -0.407898
   35      H      -6.321471     1.220692    -1.972991
   36      H      -7.574361     2.446358    -2.281579
   37      H      -4.668755     5.318536    -0.347035
   38      H      -4.033955     5.651511    -1.963718
   39      H      -3.414306     4.261583    -1.067561
   40      H      -5.610804     2.695786    -3.690385
   41      H      -4.076111     2.516264    -2.797495
   42      H      -4.384930     3.942419    -3.814314
   43      H      -7.651617     0.314786    -0.256256
   44      H      -8.892966     1.534826    -0.602728
   45      H      -5.724144     2.446033     2.200559
   46      H      -5.797281     0.839471     1.467390
   47      H      -8.118158     1.766679     1.773316
   48      H      -9.067704     3.174515     2.189514
   49      H     -10.666975     5.772052     3.913572
   50      H     -11.610509     5.842676     2.418017
   51      H     -10.275349     6.991485     2.654855
   52      H     -12.707967     1.625092    -0.673461
   53      H     -13.265652     1.617108    -2.378544
   54      H     -13.722037     2.940313    -1.297575
   55      H     -10.916678     3.968725    -3.453340
 ----------------------------------------------------
 Nuclear Repulsion Energy =  4075.1249858266 hartrees
 There are      127 alpha and      127 beta electrons
 Requested basis set is LANL2DZ
 There are 147 shells and 347 basis functions
 A cutoff of  1.0D-09 yielded   5606 shell pairs
 There are     36129 function pairs (     36702 Cartesian)
 Requested basis set is LANL2DZ
 Compound shells will be simplified
 There are 209 shells and 347 basis functions
 A cutoff of  1.0D-09 yielded  11906 shell pairs
 There are     35946 function pairs (     36519 Cartesian)
 ----------------------------------------------------
       Standard Nuclear Orientation (Angstroms)
    I     Atom         X            Y            Z
 ----------------------------------------------------
    1      N      -6.083953     3.069696    -0.908390
    2      C      -5.151968     2.421675     0.097124
    3      C      -6.960120     1.981635    -1.507624
    4      C      -5.425339     4.008195    -1.937925
    5      C      -6.488598     5.038794    -2.425693
    6      N      -7.290402     5.506327    -1.423717
    7      O      -6.460987     5.448226    -3.612771
    8      C      -8.262333     6.472219    -1.676636
    9      C      -9.293657     6.329549    -2.618063
   10      C      -8.318969     7.628907    -0.878819
   11      C      -9.326354     8.577022    -1.012575
   12      C     -10.321793     8.406735    -1.971183
   13      C     -10.300937     7.272188    -2.775894
   14      F      -9.369029     5.174750    -3.392904
   15      F     -11.300206     7.065353    -3.706724
   16      F     -11.323260     9.342886    -2.108678
   17      F      -9.345563     9.689448    -0.197365
   18      F      -7.352788     7.833796     0.081920
   19      C      -4.312926     4.852403    -1.270100
   20      C      -4.842432     3.228603    -3.126798
   21      C      -7.835223     1.397788    -0.360959
   22      C      -6.001095     1.908642     1.287604
   23      C      -7.484284     2.135590     0.952997
   24      Pd     -7.513557     4.112276     0.164539
   25      O      -9.672801     3.766879     2.711106
   26      O      -8.949728     5.310354     1.207010
   27      O     -10.774087     3.314364    -1.142483
   28      O     -11.688793     3.392279    -3.239732
   29      C      -9.673712     5.006741     2.186574
   30      C     -11.686733     3.012197    -1.926797
   31      C     -10.606422     5.968493     2.841858
   32      C     -12.917748     2.237431    -1.551078
   33      H      -4.431637     3.163600     0.429981
   34      H      -4.605624     1.611796    -0.407898
   35      H      -6.321471     1.220692    -1.972991
   36      H      -7.574361     2.446358    -2.281579
   37      H      -4.668755     5.318536    -0.347035
   38      H      -4.033955     5.651511    -1.963718
   39      H      -3.414306     4.261583    -1.067561
   40      H      -5.610804     2.695786    -3.690385
   41      H      -4.076111     2.516264    -2.797495
   42      H      -4.384930     3.942419    -3.814314
   43      H      -7.651617     0.314786    -0.256256
   44      H      -8.892966     1.534826    -0.602728
   45      H      -5.724144     2.446033     2.200559
   46      H      -5.797281     0.839471     1.467390
   47      H      -8.118158     1.766679     1.773316
   48      H      -9.067704     3.174515     2.189514
   49      H     -10.666975     5.772052     3.913572
   50      H     -11.610509     5.842676     2.418017
   51      H     -10.275349     6.991485     2.654855
   52      H     -12.707967     1.625092    -0.673461
   53      H     -13.265652     1.617108    -2.378544
   54      H     -13.722037     2.940313    -1.297575
   55      H     -10.916678     3.968725    -3.453340
 ----------------------------------------------------
 Nuclear Repulsion Energy =  4075.1302803288 hartrees
 There are      127 alpha and      127 beta electrons
 Requested basis set is LANL2DZ
 There are 147 shells and 347 basis functions
 A cutoff of  1.0D-09 yielded   5606 shell pairs
 There are     36129 function pairs (     36702 Cartesian)
 Requested basis set is LANL2DZ
 Compound shells will be simplified
 There are 209 shells and 347 basis functions
 A cutoff of  1.0D-09 yielded  11907 shell pairs
 There are     35947 function pairs (     36520 Cartesian)
 ----------------------------------------------------
       Standard Nuclear Orientation (Angstroms)
    I     Atom         X            Y            Z
 ----------------------------------------------------
    1      N      -6.083953     3.069696    -0.908390
    2      C      -5.151968     2.421675     0.095124
    3      C      -6.960120     1.981635    -1.507624
    4      C      -5.425339     4.008195    -1.937925
    5      C      -6.488598     5.038794    -2.425693
    6      N      -7.290402     5.506327    -1.423717
    7      O      -6.460987     5.448226    -3.612771
    8      C      -8.262333     6.472219    -1.676636
    9      C      -9.293657     6.329549    -2.618063
   10      C      -8.318969     7.628907    -0.878819
   11      C      -9.326354     8.577022    -1.012575
   12      C     -10.321793     8.406735    -1.971183
   13      C     -10.300937     7.272188    -2.775894
   14      F      -9.369029     5.174750    -3.392904
   15      F     -11.300206     7.065353    -3.706724
   16      F     -11.323260     9.342886    -2.108678
   17      F      -9.345563     9.689448    -0.197365
   18      F      -7.352788     7.833796     0.081920
   19      C      -4.312926     4.852403    -1.270100
   20      C      -4.842432     3.228603    -3.126798
   21      C      -7.835223     1.397788    -0.360959
   22      C      -6.001095     1.908642     1.287604
   23      C      -7.484284     2.135590     0.952997
   24      Pd     -7.513557     4.112276     0.164539
   25      O      -9.672801     3.766879     2.711106
   26      O      -8.949728     5.310354     1.207010
   27      O     -10.774087     3.314364    -1.142483
   28      O     -11.688793     3.392279    -3.239732
   29      C      -9.673712     5.006741     2.186574
   30      C     -11.686733     3.012197    -1.926797
   31      C     -10.606422     5.968493     2.841858
   32      C     -12.917748     2.237431    -1.551078
   33      H      -4.431637     3.163600     0.429981
   34      H      -4.605624     1.611796    -0.407898
   35      H      -6.321471     1.220692    -1.972991
   36      H      -7.574361     2.446358    -2.281579
   37      H      -4.668755     5.318536    -0.347035
   38      H      -4.033955     5.651511    -1.963718
   39      H      -3.414306     4.261583    -1.067561
   40      H      -5.610804     2.695786    -3.690385
   41      H      -4.076111     2.516264    -2.797495
   42      H      -4.384930     3.942419    -3.814314
   43      H      -7.651617     0.314786    -0.256256
   44      H      -8.892966     1.534826    -0.602728
   45      H      -5.724144     2.446033     2.200559
   46      H      -5.797281     0.839471     1.467390
   47      H      -8.118158     1.766679     1.773316
   48      H      -9.067704     3.174515     2.189514
   49      H     -10.666975     5.772052     3.913572
   50      H     -11.610509     5.842676     2.418017
   51      H     -10.275349     6.991485     2.654855
   52      H     -12.707967     1.625092    -0.673461
   53      H     -13.265652     1.617108    -2.378544
   54      H     -13.722037     2.940313    -1.297575
   55      H     -10.916678     3.968725    -3.453340
 ----------------------------------------------------
 Nuclear Repulsion Energy =  4075.1507856608 hartrees
 There are      127 alpha and      127 beta electrons
 Requested basis set is LANL2DZ
 There are 147 shells and 347 basis functions
 A cutoff of  1.0D-09 yielded   5606 shell pairs
 There are     36129 function pairs (     36702 Cartesian)
 Requested basis set is LANL2DZ
 Compound shells will be simplified
 There are 209 shells and 347 basis functions
 A cutoff of  1.0D-09 yielded  11906 shell pairs
 There are     35946 function pairs (     36519 Cartesian)
 ----------------------------------------------------
       Standard Nuclear Orientation (Angstroms)
    I     Atom         X            Y            Z
 ----------------------------------------------------
    1      N      -6.083953     3.069696    -0.908390
    2      C      -5.151968     2.421675     0.096124
    3      C      -6.959120     1.981635    -1.507624
    4      C      -5.425339     4.008195    -1.937925
    5      C      -6.488598     5.038794    -2.425693
    6      N      -7.290402     5.506327    -1.423717
    7      O      -6.460987     5.448226    -3.612771
    8      C      -8.262333     6.472219    -1.676636
    9      C      -9.293657     6.329549    -2.618063
   10      C      -8.318969     7.628907    -0.878819
   11      C      -9.326354     8.577022    -1.012575
   12      C     -10.321793     8.406735    -1.971183
   13      C     -10.300937     7.272188    -2.775894
   14      F      -9.369029     5.174750    -3.392904
   15      F     -11.300206     7.065353    -3.706724
   16      F     -11.323260     9.342886    -2.108678
   17      F      -9.345563     9.689448    -0.197365
   18      F      -7.352788     7.833796     0.081920
   19      C      -4.312926     4.852403    -1.270100
   20      C      -4.842432     3.228603    -3.126798
   21      C      -7.835223     1.397788    -0.360959
   22      C      -6.001095     1.908642     1.287604
   23      C      -7.484284     2.135590     0.952997
   24      Pd     -7.513557     4.112276     0.164539
   25      O      -9.672801     3.766879     2.711106
   26      O      -8.949728     5.310354     1.207010
   27      O     -10.774087     3.314364    -1.142483
   28      O     -11.688793     3.392279    -3.239732
   29      C      -9.673712     5.006741     2.186574
   30      C     -11.686733     3.012197    -1.926797
   31      C     -10.606422     5.968493     2.841858
   32      C     -12.917748     2.237431    -1.551078
   33      H      -4.431637     3.163600     0.429981
   34      H      -4.605624     1.611796    -0.407898
   35      H      -6.321471     1.220692    -1.972991
   36      H      -7.574361     2.446358    -2.281579
   37      H      -4.668755     5.318536    -0.347035
   38      H      -4.033955     5.651511    -1.963718
   39      H      -3.414306     4.261583    -1.067561
   40      H      -5.610804     2.695786    -3.690385
   41      H      -4.076111     2.516264    -2.797495
   42      H      -4.384930     3.942419    -3.814314
   43      H      -7.651617     0.314786    -0.256256
   44      H      -8.892966     1.534826    -0.602728
   45      H      -5.724144     2.446033     2.200559
   46      H      -5.797281     0.839471     1.467390
   47      H      -8.118158     1.766679     1.773316
   48      H      -9.067704     3.174515     2.189514
   49      H     -10.666975     5.772052     3.913572
   50      H     -11.610509     5.842676     2.418017
   51      H     -10.275349     6.991485     2.654855
   52      H     -12.707967     1.625092    -0.673461
   53      H     -13.265652     1.617108    -2.378544
   54      H     -13.722037     2.940313    -1.297575
   55      H     -10.916678     3.968725    -3.453340
 ----------------------------------------------------
 Nuclear Repulsion Energy =  4075.1395107439 hartrees
 There are      127 alpha and      127 beta electrons
 Requested basis set is LANL2DZ
 There are 147 shells and 347 basis functions
 A cutoff of  1.0D-09 yielded   5606 shell pairs
 There are     36129 function pairs (     36702 Cartesian)
 Requested basis set is LANL2DZ
 Compound shells will be simplified
 There are 209 shells and 347 basis functions
 A cutoff of  1.0D-09 yielded  11906 shell pairs
 There are     35946 function pairs (     36519 Cartesian)
 ----------------------------------------------------
       Standard Nuclear Orientation (Angstroms)
    I     Atom         X            Y            Z
 ----------------------------------------------------
    1      N      -6.083953     3.069696    -0.908390
    2      C      -5.151968     2.421675     0.096124
    3      C      -6.961120     1.981635    -1.507624
    4      C      -5.425339     4.008195    -1.937925
    5      C      -6.488598     5.038794    -2.425693
    6      N      -7.290402     5.506327    -1.423717
    7      O      -6.460987     5.448226    -3.612771
    8      C      -8.262333     6.472219    -1.676636
    9      C      -9.293657     6.329549    -2.618063
   10      C      -8.318969     7.628907    -0.878819
   11      C      -9.326354     8.577022    -1.012575
   12      C     -10.321793     8.406735    -1.971183
   13      C     -10.300937     7.272188    -2.775894
   14      F      -9.369029     5.174750    -3.392904
   15      F     -11.300206     7.065353    -3.706724
   16      F     -11.323260     9.342886    -2.108678
   17      F      -9.345563     9.689448    -0.197365
   18      F      -7.352788     7.833796     0.081920
   19      C      -4.312926     4.852403    -1.270100
   20      C      -4.842432     3.228603    -3.126798
   21      C      -7.835223     1.397788    -0.360959
   22      C      -6.001095     1.908642     1.287604
   23      C      -7.484284     2.135590     0.952997
   24      Pd     -7.513557     4.112276     0.164539
   25      O      -9.672801     3.766879     2.711106
   26      O      -8.949728     5.310354     1.207010
   27      O     -10.774087     3.314364    -1.142483
   28      O     -11.688793     3.392279    -3.239732
   29      C      -9.673712     5.006741     2.186574
   30      C     -11.686733     3.012197    -1.926797
   31      C     -10.606422     5.968493     2.841858
   32      C     -12.917748     2.237431    -1.551078
   33      H      -4.431637     3.163600     0.429981
   34      H      -4.605624     1.611796    -0.407898
   35      H      -6.321471     1.220692    -1.972991
   36      H      -7.574361     2.446358    -2.281579
   37      H      -4.668755     5.318536    -0.347035
   38      H      -4.033955     5.651511    -1.963718
   39      H      -3.414306     4.261583    -1.067561
   40      H      -5.610804     2.695786    -3.690385
   41      H      -4.076111     2.516264    -2.797495
   42      H      -4.384930     3.942419    -3.814314
   43      H      -7.651617     0.314786    -0.256256
   44      H      -8.892966     1.534826    -0.602728
   45      H      -5.724144     2.446033     2.200559
   46      H      -5.797281     0.839471     1.467390
   47      H      -8.118158     1.766679     1.773316
   48      H      -9.067704     3.174515     2.189514
   49      H     -10.666975     5.772052     3.913572
   50      H     -11.610509     5.842676     2.418017
   51      H     -10.275349     6.991485     2.654855
   52      H     -12.707967     1.625092    -0.673461
   53      H     -13.265652     1.617108    -2.378544
   54      H     -13.722037     2.940313    -1.297575
   55      H     -10.916678     3.968725    -3.453340
 ----------------------------------------------------
 Nuclear Repulsion Energy =  4075.1415511172 hartrees
 There are      127 alpha and      127 beta electrons
 Requested basis set is LANL2DZ
 There are 147 shells and 347 basis functions
 A cutoff of  1.0D-09 yielded   5606 shell pairs
 There are     36129 function pairs (     36702 Cartesian)
 Requested basis set is LANL2DZ
 Compound shells will be simplified
 There are 209 shells and 347 basis functions
 A cutoff of  1.0D-09 yielded  11906 shell pairs
 There are     35946 function pairs (     36519 Cartesian)
 ----------------------------------------------------
       Standard Nuclear Orientation (Angstroms)
    I     Atom         X            Y            Z
 ----------------------------------------------------
    1      N      -6.083953     3.069696    -0.908390
    2      C      -5.151968     2.421675     0.096124
    3      C      -6.960120     1.982635    -1.507624
    4      C      -5.425339     4.008195    -1.937925
    5      C      -6.488598     5.038794    -2.425693
    6      N      -7.290402     5.506327    -1.423717
    7      O      -6.460987     5.448226    -3.612771
    8      C      -8.262333     6.472219    -1.676636
    9      C      -9.293657     6.329549    -2.618063
   10      C      -8.318969     7.628907    -0.878819
   11      C      -9.326354     8.577022    -1.012575
   12      C     -10.321793     8.406735    -1.971183
   13      C     -10.300937     7.272188    -2.775894
   14      F      -9.369029     5.174750    -3.392904
   15      F     -11.300206     7.065353    -3.706724
   16      F     -11.323260     9.342886    -2.108678
   17      F      -9.345563     9.689448    -0.197365
   18      F      -7.352788     7.833796     0.081920
   19      C      -4.312926     4.852403    -1.270100
   20      C      -4.842432     3.228603    -3.126798
   21      C      -7.835223     1.397788    -0.360959
   22      C      -6.001095     1.908642     1.287604
   23      C      -7.484284     2.135590     0.952997
   24      Pd     -7.513557     4.112276     0.164539
   25      O      -9.672801     3.766879     2.711106
   26      O      -8.949728     5.310354     1.207010
   27      O     -10.774087     3.314364    -1.142483
   28      O     -11.688793     3.392279    -3.239732
   29      C      -9.673712     5.006741     2.186574
   30      C     -11.686733     3.012197    -1.926797
   31      C     -10.606422     5.968493     2.841858
   32      C     -12.917748     2.237431    -1.551078
   33      H      -4.431637     3.163600     0.429981
   34      H      -4.605624     1.611796    -0.407898
   35      H      -6.321471     1.220692    -1.972991
   36      H      -7.574361     2.446358    -2.281579
   37      H      -4.668755     5.318536    -0.347035
   38      H      -4.033955     5.651511    -1.963718
   39      H      -3.414306     4.261583    -1.067561
   40      H      -5.610804     2.695786    -3.690385
   41      H      -4.076111     2.516264    -2.797495
   42      H      -4.384930     3.942419    -3.814314
   43      H      -7.651617     0.314786    -0.256256
   44      H      -8.892966     1.534826    -0.602728
   45      H      -5.724144     2.446033     2.200559
   46      H      -5.797281     0.839471     1.467390
   47      H      -8.118158     1.766679     1.773316
   48      H      -9.067704     3.174515     2.189514
   49      H     -10.666975     5.772052     3.913572
   50      H     -11.610509     5.842676     2.418017
   51      H     -10.275349     6.991485     2.654855
   52      H     -12.707967     1.625092    -0.673461
   53      H     -13.265652     1.617108    -2.378544
   54      H     -13.722037     2.940313    -1.297575
   55      H     -10.916678     3.968725    -3.453340
 ----------------------------------------------------
 Nuclear Repulsion Energy =  4075.1679064995 hartrees
 There are      127 alpha and      127 beta electrons
 Requested basis set is LANL2DZ
 There are 147 shells and 347 basis functions
 A cutoff of  1.0D-09 yielded   5606 shell pairs
 There are     36129 function pairs (     36702 Cartesian)
 Requested basis set is LANL2DZ
 Compound shells will be simplified
 There are 209 shells and 347 basis functions
 A cutoff of  1.0D-09 yielded  11906 shell pairs
 There are     35946 function pairs (     36519 Cartesian)
 ----------------------------------------------------
       Standard Nuclear Orientation (Angstroms)
    I     Atom         X            Y            Z
 ----------------------------------------------------
    1      N      -6.083953     3.069696    -0.908390
    2      C      -5.151968     2.421675     0.096124
    3      C      -6.960120     1.980635    -1.507624
    4      C      -5.425339     4.008195    -1.937925
    5      C      -6.488598     5.038794    -2.425693
    6      N      -7.290402     5.506327    -1.423717
    7      O      -6.460987     5.448226    -3.612771
    8      C      -8.262333     6.472219    -1.676636
    9      C      -9.293657     6.329549    -2.618063
   10      C      -8.318969     7.628907    -0.878819
   11      C      -9.326354     8.577022    -1.012575
   12      C     -10.321793     8.406735    -1.971183
   13      C     -10.300937     7.272188    -2.775894
   14      F      -9.369029     5.174750    -3.392904
   15      F     -11.300206     7.065353    -3.706724
   16      F     -11.323260     9.342886    -2.108678
   17      F      -9.345563     9.689448    -0.197365
   18      F      -7.352788     7.833796     0.081920
   19      C      -4.312926     4.852403    -1.270100
   20      C      -4.842432     3.228603    -3.126798
   21      C      -7.835223     1.397788    -0.360959
   22      C      -6.001095     1.908642     1.287604
   23      C      -7.484284     2.135590     0.952997
   24      Pd     -7.513557     4.112276     0.164539
   25      O      -9.672801     3.766879     2.711106
   26      O      -8.949728     5.310354     1.207010
   27      O     -10.774087     3.314364    -1.142483
   28      O     -11.688793     3.392279    -3.239732
   29      C      -9.673712     5.006741     2.186574
   30      C     -11.686733     3.012197    -1.926797
   31      C     -10.606422     5.968493     2.841858
   32      C     -12.917748     2.237431    -1.551078
   33      H      -4.431637     3.163600     0.429981
   34      H      -4.605624     1.611796    -0.407898
   35      H      -6.321471     1.220692    -1.972991
   36      H      -7.574361     2.446358    -2.281579
   37      H      -4.668755     5.318536    -0.347035
   38      H      -4.033955     5.651511    -1.963718
   39      H      -3.414306     4.261583    -1.067561
   40      H      -5.610804     2.695786    -3.690385
   41      H      -4.076111     2.516264    -2.797495
   42      H      -4.384930     3.942419    -3.814314
   43      H      -7.651617     0.314786    -0.256256
   44      H      -8.892966     1.534826    -0.602728
   45      H      -5.724144     2.446033     2.200559
   46      H      -5.797281     0.839471     1.467390
   47      H      -8.118158     1.766679     1.773316
   48      H      -9.067704     3.174515     2.189514
   49      H     -10.666975     5.772052     3.913572
   50      H     -11.610509     5.842676     2.418017
   51      H     -10.275349     6.991485     2.654855
   52      H     -12.707967     1.625092    -0.673461
   53      H     -13.265652     1.617108    -2.378544
   54      H     -13.722037     2.940313    -1.297575
   55      H     -10.916678     3.968725    -3.453340
 ----------------------------------------------------
 Nuclear Repulsion Energy =  4075.1131611910 hartrees
 There are      127 alpha and      127 beta electrons
 Requested basis set is LANL2DZ
 There are 147 shells and 347 basis functions
 A cutoff of  1.0D-09 yielded   5606 shell pairs
 There are     36129 function pairs (     36702 Cartesian)
 Requested basis set is LANL2DZ
 Compound shells will be simplified
 There are 209 shells and 347 basis functions
 A cutoff of  1.0D-09 yielded  11906 shell pairs
 There are     35946 function pairs (     36519 Cartesian)
 ----------------------------------------------------
       Standard Nuclear Orientation (Angstroms)
    I     Atom         X            Y            Z
 ----------------------------------------------------
    1      N      -6.083953     3.069696    -0.908390
    2      C      -5.151968     2.421675     0.096124
    3      C      -6.960120     1.981635    -1.506624
    4      C      -5.425339     4.008195    -1.937925
    5      C      -6.488598     5.038794    -2.425693
    6      N      -7.290402     5.506327    -1.423717
    7      O      -6.460987     5.448226    -3.612771
    8      C      -8.262333     6.472219    -1.676636
    9      C      -9.293657     6.329549    -2.618063
   10      C      -8.318969     7.628907    -0.878819
   11      C      -9.326354     8.577022    -1.012575
   12      C     -10.321793     8.406735    -1.971183
   13      C     -10.300937     7.272188    -2.775894
   14      F      -9.369029     5.174750    -3.392904
   15      F     -11.300206     7.065353    -3.706724
   16      F     -11.323260     9.342886    -2.108678
   17      F      -9.345563     9.689448    -0.197365
   18      F      -7.352788     7.833796     0.081920
   19      C      -4.312926     4.852403    -1.270100
   20      C      -4.842432     3.228603    -3.126798
   21      C      -7.835223     1.397788    -0.360959
   22      C      -6.001095     1.908642     1.287604
   23      C      -7.484284     2.135590     0.952997
   24      Pd     -7.513557     4.112276     0.164539
   25      O      -9.672801     3.766879     2.711106
   26      O      -8.949728     5.310354     1.207010
   27      O     -10.774087     3.314364    -1.142483
   28      O     -11.688793     3.392279    -3.239732
   29      C      -9.673712     5.006741     2.186574
   30      C     -11.686733     3.012197    -1.926797
   31      C     -10.606422     5.968493     2.841858
   32      C     -12.917748     2.237431    -1.551078
   33      H      -4.431637     3.163600     0.429981
   34      H      -4.605624     1.611796    -0.407898
   35      H      -6.321471     1.220692    -1.972991
   36      H      -7.574361     2.446358    -2.281579
   37      H      -4.668755     5.318536    -0.347035
   38      H      -4.033955     5.651511    -1.963718
   39      H      -3.414306     4.261583    -1.067561
   40      H      -5.610804     2.695786    -3.690385
   41      H      -4.076111     2.516264    -2.797495
   42      H      -4.384930     3.942419    -3.814314
   43      H      -7.651617     0.314786    -0.256256
   44      H      -8.892966     1.534826    -0.602728
   45      H      -5.724144     2.446033     2.200559
   46      H      -5.797281     0.839471     1.467390
   47      H      -8.118158     1.766679     1.773316
   48      H      -9.067704     3.174515     2.189514
   49      H     -10.666975     5.772052     3.913572
   50      H     -11.610509     5.842676     2.418017
   51      H     -10.275349     6.991485     2.654855
   52      H     -12.707967     1.625092    -0.673461
   53      H     -13.265652     1.617108    -2.378544
   54      H     -13.722037     2.940313    -1.297575
   55      H     -10.916678     3.968725    -3.453340
 ----------------------------------------------------
 Nuclear Repulsion Energy =  4075.1581426479 hartrees
 There are      127 alpha and      127 beta electrons
 Requested basis set is LANL2DZ
 There are 147 shells and 347 basis functions
 A cutoff of  1.0D-09 yielded   5606 shell pairs
 There are     36129 function pairs (     36702 Cartesian)
 Requested basis set is LANL2DZ
 Compound shells will be simplified
 There are 209 shells and 347 basis functions
 A cutoff of  1.0D-09 yielded  11906 shell pairs
 There are     35946 function pairs (     36519 Cartesian)
 ----------------------------------------------------
       Standard Nuclear Orientation (Angstroms)
    I     Atom         X            Y            Z
 ----------------------------------------------------
    1      N      -6.083953     3.069696    -0.908390
    2      C      -5.151968     2.421675     0.096124
    3      C      -6.960120     1.981635    -1.508624
    4      C      -5.425339     4.008195    -1.937925
    5      C      -6.488598     5.038794    -2.425693
    6      N      -7.290402     5.506327    -1.423717
    7      O      -6.460987     5.448226    -3.612771
    8      C      -8.262333     6.472219    -1.676636
    9      C      -9.293657     6.329549    -2.618063
   10      C      -8.318969     7.628907    -0.878819
   11      C      -9.326354     8.577022    -1.012575
   12      C     -10.321793     8.406735    -1.971183
   13      C     -10.300937     7.272188    -2.775894
   14      F      -9.369029     5.174750    -3.392904
   15      F     -11.300206     7.065353    -3.706724
   16      F     -11.323260     9.342886    -2.108678
   17      F      -9.345563     9.689448    -0.197365
   18      F      -7.352788     7.833796     0.081920
   19      C      -4.312926     4.852403    -1.270100
   20      C      -4.842432     3.228603    -3.126798
   21      C      -7.835223     1.397788    -0.360959
   22      C      -6.001095     1.908642     1.287604
   23      C      -7.484284     2.135590     0.952997
   24      Pd     -7.513557     4.112276     0.164539
   25      O      -9.672801     3.766879     2.711106
   26      O      -8.949728     5.310354     1.207010
   27      O     -10.774087     3.314364    -1.142483
   28      O     -11.688793     3.392279    -3.239732
   29      C      -9.673712     5.006741     2.186574
   30      C     -11.686733     3.012197    -1.926797
   31      C     -10.606422     5.968493     2.841858
   32      C     -12.917748     2.237431    -1.551078
   33      H      -4.431637     3.163600     0.429981
   34      H      -4.605624     1.611796    -0.407898
   35      H      -6.321471     1.220692    -1.972991
   36      H      -7.574361     2.446358    -2.281579
   37      H      -4.668755     5.318536    -0.347035
   38      H      -4.033955     5.651511    -1.963718
   39      H      -3.414306     4.261583    -1.067561
   40      H      -5.610804     2.695786    -3.690385
   41      H      -4.076111     2.516264    -2.797495
   42      H      -4.384930     3.942419    -3.814314
   43      H      -7.651617     0.314786    -0.256256
   44      H      -8.892966     1.534826    -0.602728
   45      H      -5.724144     2.446033     2.200559
   46      H      -5.797281     0.839471     1.467390
   47      H      -8.118158     1.766679     1.773316
   48      H      -9.067704     3.174515     2.189514
   49      H     -10.666975     5.772052     3.913572
   50      H     -11.610509     5.842676     2.418017
   51      H     -10.275349     6.991485     2.654855
   52      H     -12.707967     1.625092    -0.673461
   53      H     -13.265652     1.617108    -2.378544
   54      H     -13.722037     2.940313    -1.297575
   55      H     -10.916678     3.968725    -3.453340
 ----------------------------------------------------
 Nuclear Repulsion Energy =  4075.1229223795 hartrees
 There are      127 alpha and      127 beta electrons
 Requested basis set is LANL2DZ
 There are 147 shells and 347 basis functions
 A cutoff of  1.0D-09 yielded   5606 shell pairs
 There are     36129 function pairs (     36702 Cartesian)
 Requested basis set is LANL2DZ
 Compound shells will be simplified
 There are 209 shells and 347 basis functions
 A cutoff of  1.0D-09 yielded  11906 shell pairs
 There are     35946 function pairs (     36519 Cartesian)
 ----------------------------------------------------
       Standard Nuclear Orientation (Angstroms)
    I     Atom         X            Y            Z
 ----------------------------------------------------
    1      N      -6.083953     3.069696    -0.908390
    2      C      -5.151968     2.421675     0.096124
    3      C      -6.960120     1.981635    -1.507624
    4      C      -5.424339     4.008195    -1.937925
    5      C      -6.488598     5.038794    -2.425693
    6      N      -7.290402     5.506327    -1.423717
    7      O      -6.460987     5.448226    -3.612771
    8      C      -8.262333     6.472219    -1.676636
    9      C      -9.293657     6.329549    -2.618063
   10      C      -8.318969     7.628907    -0.878819
   11      C      -9.326354     8.577022    -1.012575
   12      C     -10.321793     8.406735    -1.971183
   13      C     -10.300937     7.272188    -2.775894
   14      F      -9.369029     5.174750    -3.392904
   15      F     -11.300206     7.065353    -3.706724
   16      F     -11.323260     9.342886    -2.108678
   17      F      -9.345563     9.689448    -0.197365
   18      F      -7.352788     7.833796     0.081920
   19      C      -4.312926     4.852403    -1.270100
   20      C      -4.842432     3.228603    -3.126798
   21      C      -7.835223     1.397788    -0.360959
   22      C      -6.001095     1.908642     1.287604
   23      C      -7.484284     2.135590     0.952997
   24      Pd     -7.513557     4.112276     0.164539
   25      O      -9.672801     3.766879     2.711106
   26      O      -8.949728     5.310354     1.207010
   27      O     -10.774087     3.314364    -1.142483
   28      O     -11.688793     3.392279    -3.239732
   29      C      -9.673712     5.006741     2.186574
   30      C     -11.686733     3.012197    -1.926797
   31      C     -10.606422     5.968493     2.841858
   32      C     -12.917748     2.237431    -1.551078
   33      H      -4.431637     3.163600     0.429981
   34      H      -4.605624     1.611796    -0.407898
   35      H      -6.321471     1.220692    -1.972991
   36      H      -7.574361     2.446358    -2.281579
   37      H      -4.668755     5.318536    -0.347035
   38      H      -4.033955     5.651511    -1.963718
   39      H      -3.414306     4.261583    -1.067561
   40      H      -5.610804     2.695786    -3.690385
   41      H      -4.076111     2.516264    -2.797495
   42      H      -4.384930     3.942419    -3.814314
   43      H      -7.651617     0.314786    -0.256256
   44      H      -8.892966     1.534826    -0.602728
   45      H      -5.724144     2.446033     2.200559
   46      H      -5.797281     0.839471     1.467390
   47      H      -8.118158     1.766679     1.773316
   48      H      -9.067704     3.174515     2.189514
   49      H     -10.666975     5.772052     3.913572
   50      H     -11.610509     5.842676     2.418017
   51      H     -10.275349     6.991485     2.654855
   52      H     -12.707967     1.625092    -0.673461
   53      H     -13.265652     1.617108    -2.378544
   54      H     -13.722037     2.940313    -1.297575
   55      H     -10.916678     3.968725    -3.453340
 ----------------------------------------------------
 Nuclear Repulsion Energy =  4075.1183264733 hartrees
 There are      127 alpha and      127 beta electrons
 Requested basis set is LANL2DZ
 There are 147 shells and 347 basis functions
 A cutoff of  1.0D-09 yielded   5606 shell pairs
 There are     36129 function pairs (     36702 Cartesian)
 Requested basis set is LANL2DZ
 Compound shells will be simplified
 There are 209 shells and 347 basis functions
 A cutoff of  1.0D-09 yielded  11906 shell pairs
 There are     35946 function pairs (     36519 Cartesian)
 ----------------------------------------------------
       Standard Nuclear Orientation (Angstroms)
    I     Atom         X            Y            Z
 ----------------------------------------------------
    1      N      -6.083953     3.069696    -0.908390
    2      C      -5.151968     2.421675     0.096124
    3      C      -6.960120     1.981635    -1.507624
    4      C      -5.426339     4.008195    -1.937925
    5      C      -6.488598     5.038794    -2.425693
    6      N      -7.290402     5.506327    -1.423717
    7      O      -6.460987     5.448226    -3.612771
    8      C      -8.262333     6.472219    -1.676636
    9      C      -9.293657     6.329549    -2.618063
   10      C      -8.318969     7.628907    -0.878819
   11      C      -9.326354     8.577022    -1.012575
   12      C     -10.321793     8.406735    -1.971183
   13      C     -10.300937     7.272188    -2.775894
   14      F      -9.369029     5.174750    -3.392904
   15      F     -11.300206     7.065353    -3.706724
[...]
    -0.00001357     -0.00001173      0.00000048
    -0.00001323      0.00002887      0.00000404
     0.00002441     -0.00000047     -0.00001677
     0.00001181      0.00000508      0.00000498
    -0.00000859     -0.00000438      0.00000787
    -0.00002534     -0.00001959      0.00003401
    -0.00001060     -0.00000701     -0.00001828
     0.00011740      0.00008986      0.00011537
     0.00005273     -0.00017552     -0.00002018
     0.01313479      0.01157122      0.00724517
    -0.00447519      0.00884875      0.00516411
    -0.00266412      0.00385511      0.00202865
     0.00371101     -0.00261120      0.00411481
    -0.26616209      0.35155440      0.70156498
    -0.07676132     -0.28241244      0.22329234
    -0.32348037      0.22798050     -0.09532230
     0.03441985      0.02332628      0.02534644
     0.00111874     -0.00206017      0.00140069
     0.01107960      0.01822722     -0.01547257
    -0.00012945      0.00068684      0.00009369
    -0.00160119      0.00022484     -0.00038093
     0.00082954      0.00138372      0.00258742
    -0.00040518      0.00203388     -0.00043845
     0.00021686      0.00034436     -0.00028647
     0.00020762     -0.00041233     -0.00013569
     0.00010359      0.00023480     -0.00123606
    -0.00115446     -0.00014019     -0.00046685
    -0.00038876     -0.00122199      0.00027332
    -0.00024568      0.00068385     -0.00106155
     0.00044377      0.00071591      0.00100659
    -0.00082722      0.00068921      0.00024923
     0.00015893      0.00005967     -0.00012607
vibration 154
     0.00030052      0.00004618     -0.00048366
     0.00048366      0.00055889      0.00021363
    -0.00032290     -0.00021967     -0.00170240
    -0.00129820     -0.00120823      0.00085849
    -0.00013469      0.00008856      0.00048167
     0.00007345     -0.00001356     -0.00010089
     0.00035248     -0.00013111     -0.00021233
    -0.00001022     -0.00000672     -0.00000275
    -0.00000205     -0.00001718     -0.00001222
    -0.00000927      0.00000583     -0.00000579
     0.00000363     -0.00000067      0.00000106
    -0.00000413     -0.00000035     -0.00000323
    -0.00000613      0.00000187     -0.00000125
     0.00000195      0.00000869      0.00000468
     0.00000260      0.00000047      0.00000270
     0.00000201     -0.00000093     -0.00000020
     0.00000109      0.00000006     -0.00000105
     0.00000567     -0.00000012      0.00000236
    -0.00154596     -0.00247307      0.00533542
    -0.05498770     -0.06872514      0.02145203
     0.00007918      0.00008781      0.00007156
     0.00000163     -0.00000514      0.00001870
     0.00001374     -0.00002529     -0.00001996
     0.00000146     -0.00000206      0.00000066
     0.00002075     -0.00001289     -0.00001850
     0.00000291     -0.00000561     -0.00000237
    -0.00000825      0.00000430     -0.00000119
    -0.00001589     -0.00000541      0.00000248
    -0.00000304     -0.00000820      0.00000566
     0.00001236     -0.00000137      0.00000892
    -0.00000326      0.00001093     -0.00002249
     0.00000241     -0.00002756     -0.00002001
    -0.00585923     -0.00623400     -0.00252286
     0.00011239     -0.00014796     -0.00046762
    -0.01012029      0.01233834      0.00622149
     0.01403974     -0.00992291      0.01549554
     0.01103016     -0.01455322     -0.02806855
     0.01499827      0.04507789     -0.03796586
    -0.00467776      0.00250600      0.00172716
     0.38218534      0.25053829      0.28449382
    -0.06664352      0.03401336     -0.02036828
     0.34250404      0.54424559     -0.52601194
    -0.00000232      0.00019514      0.00007970
    -0.00062318      0.00001123     -0.00006905
     0.00000083     -0.00002223      0.00004701
    -0.00016076      0.00037290     -0.00009591
    -0.00050727     -0.00007681      0.00093038
    -0.00029661      0.00025912      0.00027006
    -0.00001563     -0.00004009      0.00023385
     0.00009183      0.00001229      0.00003355
    -0.00003240     -0.00007492      0.00001452
     0.00000924      0.00000932     -0.00004113
     0.00011364      0.00017312      0.00024997
    -0.00016530      0.00013885      0.00004605
     0.00022023      0.00004929     -0.00005862
vibration 155
     0.00000092     -0.00000760     -0.00000130
    -0.00001591     -0.00003375     -0.00001029
     0.00001235     -0.00001791      0.00000807
    -0.00000179      0.00000090      0.00000261
     0.00000703     -0.00000377     -0.00001166
    -0.00001233      0.00002489     -0.00000649
    -0.00000247     -0.00000009      0.00000390
     0.00002391     -0.00002309     -0.00000587
    -0.00000508     -0.00000729     -0.00001226
     0.00000503      0.00000545      0.00000403
    -0.00000039      0.00003340      0.00002436
    -0.00000909      0.00000048     -0.00000630
    -0.00000341     -0.00000258     -0.00000898
     0.00000075      0.00000519      0.00000348
     0.00000213      0.00000101      0.00000311
     0.00000016      0.00000007      0.00000089
     0.00000158     -0.00000589     -0.00001478
     0.00000325     -0.00000168     -0.00000156
     0.00001366     -0.00001639      0.00000557
    -0.00000462     -0.00002195      0.00000890
     0.00000506      0.00000557     -0.00000511
     0.00000124      0.00000234     -0.00001288
    -0.00005912     -0.00005110      0.00009649
     0.00000539     -0.00000252     -0.00000222
    -0.00042421      0.00080928      0.00001552
     0.00055419      0.00030138     -0.00044395
     0.00000903      0.00001105      0.00000480
    -0.00000530     -0.00000128      0.00000459
    -0.00094547     -0.00162703      0.00184727
    -0.00002100     -0.00001147     -0.00001339
    -0.02204379     -0.06486136      0.06341174
    -0.00015691      0.00001217     -0.00048860
     0.00029442      0.00029832      0.00012387
    -0.00006041      0.00009154      0.00002912
    -0.00005043      0.00009220      0.00003937
    -0.00011989      0.00008476     -0.00017829
     0.00000357      0.00000374      0.00003401
     0.00003677      0.00007200     -0.00006509
    -0.00019572      0.00012676     -0.00003895
     0.00006350      0.00003457      0.00005070
    -0.00010927      0.00009352     -0.00004235
     0.00009150      0.00013203     -0.00012385
    -0.00001788     -0.00000497      0.00001219
     0.00001289     -0.00001231      0.00002788
    -0.00001752     -0.00000153      0.00001401
     0.00000843     -0.00004377      0.00002314
     0.00086499      0.00090522     -0.00126467
     0.00396029     -0.00449616     -0.00503573
     0.03149356      0.11639994     -0.67505365
     0.01317693     -0.01447744      0.02584781
     0.22209388      0.67625609     -0.11508634
     0.00077217     -0.00226216      0.00319550
     0.00116487      0.00218865      0.00282565
     0.00000365     -0.00005372     -0.00013142
     0.00010788      0.00003954     -0.00006618
vibration 156
    -0.00000269     -0.00000189      0.00000328
    -0.00003419     -0.00006287     -0.00003178
    -0.00000061     -0.00000096     -0.00002355
     0.00000246      0.00000526     -0.00000520
     0.00000217      0.00000349     -0.00001457
     0.00000272     -0.00001042      0.00000999
     0.00000182     -0.00000163      0.00001056
    -0.00001071      0.00001796      0.00000366
     0.00000002     -0.00003272     -0.00002233
    -0.00000115     -0.00000470     -0.00000583
    -0.00000303     -0.00000011     -0.00000283
    -0.00000131      0.00000125      0.00000102
    -0.00001869     -0.00000210     -0.00001572
     0.00001529      0.00002308      0.00001376
     0.00000916      0.00000437      0.00000777
     0.00000063     -0.00000139      0.00000130
    -0.00000109      0.00000135      0.00000272
     0.00000165      0.00000060      0.00000421
    -0.00000002      0.00001318     -0.00001615
    -0.00000096      0.00001355     -0.00001300
    -0.00003861     -0.00000373     -0.00000619
     0.00000135     -0.00000805      0.00000075
     0.00001248      0.00001346     -0.00001746
     0.00000087      0.00000141     -0.00000143
     0.00001994     -0.00005270     -0.00002856
    -0.00001279     -0.00000535      0.00000923
     0.00074429      0.00000212      0.00067857
    -0.00016047     -0.00017480      0.00061339
     0.00002831      0.00003250     -0.00002132
    -0.00148877     -0.00000208     -0.00264419
     0.00013415      0.00036435     -0.00032963
    -0.02980941      0.00569315     -0.08819409
     0.00055337      0.00058287      0.00025227
    -0.00014940      0.00020636      0.00012597
    -0.00014473      0.00014951      0.00010040
     0.00012841     -0.00009828      0.00012371
    -0.00002694      0.00005390      0.00007226
    -0.00006211     -0.00016455      0.00014355
     0.00008585     -0.00005161      0.00001465
     0.00003096      0.00003424      0.00000680
     0.00007971     -0.00005895      0.00002674
    -0.00010083     -0.00013601      0.00013610
    -0.00005543      0.00006746     -0.00002707
     0.00069275     -0.00011973      0.00009097
    -0.00000989     -0.00000614     -0.00000106
    -0.00000689      0.00007856     -0.00000771
    -0.00018038     -0.00019325      0.00030268
    -0.00030648      0.00057480      0.00049150
    -0.00016094     -0.00059254      0.00353324
    -0.00022828      0.00014315     -0.00017255
    -0.00128984     -0.00387553      0.00065294
     0.14618468     -0.42830504      0.59912760
     0.20153792      0.37916303      0.49159285
     0.01369074     -0.01786884     -0.03049910
     0.00156103      0.00167173      0.00073728
vibration 157
    -0.00005649     -0.00050426     -0.00037453
    -0.04631541     -0.06527709     -0.03211482
     0.00093749     -0.00023906      0.00053034
    -0.00045870     -0.00009285     -0.00002867
     0.00011817     -0.00003527     -0.00006223
    -0.00002005      0.00000562      0.00000604
    -0.00001341      0.00001973     -0.00000515
     0.00001087     -0.00000510      0.00000700
    -0.00000102     -0.00000699     -0.00000876
    -0.00000978      0.00000073     -0.00001011
     0.00000258     -0.00000510     -0.00000288
     0.00000241     -0.00000220     -0.00000116
     0.00000281      0.00000039      0.00000064
    -0.00000079      0.00000395      0.00000242
     0.00000033      0.00000059     -0.00000058
    -0.00000031      0.00000280     -0.00000128
     0.00000163      0.00000357      0.00000076
     0.00000484      0.00000180      0.00000356
    -0.00391810      0.00466313     -0.00164662
    -0.00034969     -0.00089381      0.00025967
     0.00070888     -0.00024522      0.00016726
    -0.00105066     -0.00577119     -0.00569658
     0.00061978      0.00001966     -0.00045576
    -0.00000020      0.00000336     -0.00000026
    -0.00002025      0.00001940      0.00002294
    -0.00001917      0.00000332      0.00002429
    -0.00000588      0.00000458      0.00000080
    -0.00000636      0.00000054     -0.00000004
     0.00000209      0.00001969     -0.00001838
     0.00001463      0.00000195      0.00000754
     0.00000208      0.00002207     -0.00003132
     0.00002957     -0.00002080      0.00007609
     0.63670727      0.67598709      0.29553510
    -0.09434551      0.11648819      0.07698969
    -0.00267277      0.00470820      0.00385787
    -0.00308794      0.00237430     -0.00307651
     0.00169663     -0.00245876     -0.00637985
    -0.00859252     -0.02463199      0.02369345
     0.05344818     -0.03971356      0.01536709
     0.00441580      0.00270260      0.00347156
    -0.00356483      0.00251620     -0.00154379
     0.00345310      0.00570807     -0.00551097
    -0.00020476      0.00292493      0.00008885
    -0.00718793      0.00086547     -0.00142974
     0.02142044      0.04228077      0.07165784
    -0.00532248      0.02565687     -0.00620699
    -0.00291219     -0.00134188      0.00336182
     0.00028842     -0.00038229     -0.00029051
    -0.00003646     -0.00006272      0.00035701
     0.00008528      0.00001745      0.00002831
    -0.00007331     -0.00022009      0.00001824
    -0.00013643      0.00042438     -0.00061575
    -0.00012908     -0.00027206     -0.00033623
    -0.00011932      0.00010684      0.00005593
     0.00007496     -0.00001971     -0.00001094
vibration 158
    -0.00005364      0.00003932     -0.00006045
    -0.00007495     -0.00000801     -0.00020537
     0.00013623      0.00005209     -0.00002519
     0.00006120      0.00005103     -0.00007652
     0.00009993     -0.00005618     -0.00013392
     0.00010413     -0.00052587      0.00037787
    -0.00001719     -0.00001420      0.00013314
    -0.00039055      0.00031268      0.00008708
     0.00009590     -0.00008222      0.00005430
     0.00016260     -0.00009862      0.00009267
    -0.00004619      0.00008889      0.00003377
    -0.00000953      0.00001744      0.00002442
    -0.00005406      0.00003128     -0.00001845
     0.00000848      0.00001219      0.00001196
     0.00001833     -0.00000151      0.00001277
     0.00003705     -0.00003719      0.00000485
     0.00000270     -0.00004360     -0.00002933
    -0.00004762     -0.00000861     -0.00006712
    -0.00001581      0.00003210     -0.00003492
    -0.00000045      0.00000398      0.00002101
    -0.00050068     -0.00044970      0.00019998
     0.00001452     -0.00015227      0.00095340
     0.00175650      0.00122926     -0.00278175
    -0.00008628      0.00015068      0.00000847
     0.03600725     -0.03785481     -0.03028305
     0.00106278      0.00133182     -0.00193374
     0.00003340     -0.00006921     -0.00011103
    -0.00020295     -0.00014316      0.00000238
     0.00184089     -0.00612259      0.00047051
    -0.00000444     -0.00001887      0.00014757
    -0.00144314      0.00074991      0.00055442
     0.00000969      0.00002561      0.00005232
    -0.00026190     -0.00012360      0.00055761
    -0.00119933      0.00131870      0.00130156
    -0.00139002      0.00085618      0.00104522
    -0.00007788     -0.00037392      0.00072958
    -0.00000229      0.00037192      0.00019753
    -0.00022381     -0.00063038      0.00059641
     0.00029039     -0.00010723     -0.00006409
    -0.00017212     -0.00009367     -0.00029883
     0.00011528      0.00005674     -0.00008858
    -0.00022297     -0.00020660      0.00029277
    -0.00038138      0.00469070     -0.00003052
     0.00052981     -0.00037431     -0.00075077
    -0.00017189     -0.00129981     -0.00234602
    -0.00174580      0.00509130     -0.00114253
    -0.01940992     -0.03843638      0.03604749
    -0.58405558      0.64719008      0.48264151
     0.00076888      0.00174151     -0.00640593
     0.00693835      0.00088187      0.00260792
     0.00072172      0.00495468      0.00058358
    -0.00013692      0.00046363     -0.00017975
    -0.00024389     -0.00033066     -0.00056262
     0.00041133     -0.00027120      0.00008031
     0.00306637      0.00260098     -0.00097760
vibration 159
    -0.00001964     -0.00001408      0.00000783
    -0.00001027      0.00000475      0.00000364
     0.00000900      0.00002057     -0.00001060
     0.00000805      0.00003540     -0.00003883
    -0.00013683      0.00009604     -0.00004789
     0.00012038     -0.00018985      0.00005980
     0.00008405     -0.00002555      0.00005193
    -0.00019051      0.00060829      0.00016930
     0.00010531     -0.00180489     -0.00123769
     0.00002033     -0.00018293     -0.00011482
    -0.00004598     -0.00005556     -0.00009625
     0.00006190     -0.00006755     -0.00001222
     0.00010684      0.00016822      0.00019242
    -0.00006969      0.00077343      0.00074591
    -0.00005854     -0.00000844     -0.00001129
    -0.00005382      0.00006286      0.00000838
     0.00000003      0.00008744      0.00006549
     0.00005205      0.00003124      0.00007505
    -0.00002326      0.00000375     -0.00000394
    -0.00001478      0.00000549      0.00000206
     0.00005557     -0.00000500      0.00002239
    -0.00001098     -0.00000992     -0.00000743
    -0.00003481      0.00004617      0.00005134
     0.00000851      0.00001381     -0.00001748
    -0.00017555      0.00009226      0.00012618
    -0.00004791     -0.00002557      0.00002521
    -0.00045896     -0.00002793     -0.00098089
    -0.04690158     -0.03579855      0.01600730
     0.00006606      0.00012127     -0.00003205
    -0.00247560     -0.00186030      0.00142713
     0.00001734      0.00000764      0.00000336
     0.00111794      0.00023800     -0.00023509
    -0.00005650     -0.00002377     -0.00010570
     0.00002659      0.00000113     -0.00001640
    -0.00004700     -0.00003383      0.00007432
     0.00035661      0.00028330     -0.00018688
    -0.00001755      0.00006812     -0.00009288
    -0.00019821     -0.00015687      0.00011349
     0.00051047     -0.00026615      0.00012579
    -0.00005770      0.00012489     -0.00008128
     0.00043055     -0.00035582      0.00011772
    -0.00024288     -0.00002493      0.00012112
    -0.00021673     -0.00027512     -0.00018215
     0.00019389     -0.00050711      0.00015068
    -0.00013710     -0.00003951     -0.00006073
     0.00022855     -0.00029855      0.00005976
    -0.00007161     -0.00050224      0.00034026
     0.00299658     -0.00239523     -0.00179785
    -0.00001473     -0.00001890      0.00007043
    -0.00015006      0.00015037      0.00004647
    -0.00003173     -0.00012688     -0.00007656
    -0.00030782      0.00180024     -0.00103193
     0.00015545      0.00030822     -0.00171205
    -0.00231512      0.00223347      0.00040056
     0.76934562      0.58285182     -0.25415446
[INT]
    0.304261
    0.780554
    0.560957
    0.427453
    0.282006
    0.536418
    1.002071
    1.289359
    2.042160
    0.525913
    0.019339
    0.365853
    0.591845
    3.307649
    1.917247
    0.529545
    1.593155
    4.129850
    0.483933
    1.343150
    0.459858
    0.559743
    0.105079
    1.846408
    0.139195
    0.407466
    3.151882
    3.626494
    0.490563
    0.095186
    2.303788
    1.485692
    3.974404
    3.974423
    0.619645
   10.362662
    1.129672
    0.556671
    5.932481
    2.241068
    1.736817
    3.491927
    3.794270
    3.197697
    7.996798
    7.694931
    0.723685
   15.627895
    0.494075
    2.983886
    6.593310
   15.371772
    6.299642
   12.251885
    2.049898
   17.301312
    2.591064
   18.767553
    5.083451
   14.894098
    0.663228
    3.865154
    5.340403
    0.226302
   12.415600
   96.056713
  147.224374
    5.962508
    3.521110
    3.310911
    8.622547
    5.016661
    1.150157
    6.937929
   60.715318
   22.022425
   55.273145
   32.892743
  127.905285
   52.257469
   38.157818
   52.534138
    4.621532
   16.962317
   13.974110
    7.047460
    6.375126
    2.356516
   11.292893
    1.096257
    0.209979
   19.430373
    5.842755
   23.237344
  174.347272
    5.208301
  125.610153
    6.801921
   33.038249
   34.203354
    2.973710
   41.304307
   17.368278
    0.751160
   51.458580
   90.912203
    2.665293
   28.493956
    0.674137
   38.828201
   17.371792
   22.490438
   22.960877
   47.606866
   30.385828
   24.407065
  100.949343
   31.921901
   27.769665
   19.140930
   62.159557
   90.882830
    2.803500
   13.809520
  297.354948
    9.782866
    0.517708
    6.494280
    9.718898
   20.258461
    4.464137
  346.193981
   13.202296
  342.403652
   16.676831
  358.366002
   50.836122
   68.594669
  134.828340
   26.691768
    5.761127
   63.555603
   31.576407
    4.469502
    0.164944
   19.336102
    2.730417
   10.055943
    6.409128
    4.990233
   23.597055
    2.533834
   15.649330
    7.392036
    1.080802
    5.411765
    6.580463
  296.311028
  205.099342

======= END OF MOLDEN-FORMATTED INPUT FILE =======


        *************************************************************
        *                                                           *
        *  Thank you very much for using Q-Chem.  Have a nice day.  *
        *                                                           *
        *************************************************************


0 sent ACK to 0 
now end server 0 ... 
