Process 0 of 2 is on gollum410.lsa.umich.edu - thread support 0
initial socket setup ...start
Process 1 of 2 is on gollum410.lsa.umich.edu - thread support 0
initial socket setup ...done 
now start server 0 ... 

 Q-chem begins on Wed Feb  1 19:46:47 2017  

Host: gollum410.lsa.umich.edu
0
 Parallel job on  2  processors
Finally everything over in PARseQInput

--------------------------------------------------------------
User input:
--------------------------------------------------------------
 $rem
 JOBTYPE FREQ
 EXCHANGE B3LYP
! CORRELATION PBE
! UNRESTRICTED TRUE
 SCF_ALGORITHM diis
 SCF_MAX_CYCLES 150
 BASIS LANL2DZ
 ECP LANL2DZ
 WAVEFUNCTION_ANALYSIS FALSE
 ISOTOPES TRUE

scf_convergence 6

 SYM_IGNORE TRUE
 SYMMETRY   FALSE

molden_format true
 $end

$isotopes
1 1
0 428.15 1
$end
$molecule
1 1
  C      0.19076852      0.11196547      1.84736647
  O     -0.04830639      0.58738696      0.53577893
  H     -0.04009164      0.85139881      2.62546986
  H     -0.30566981     -0.84208572      2.06893617
  H      1.32415573     -0.10709519      2.01155009
 Ru      1.93106784      0.28070144     -0.01730256
  N      4.12164610     -0.15581966     -0.14202144
  C      4.41942683     -1.62430161      0.04128208
  C      3.56077506     -2.48753065     -0.89089190
  P      1.71317052     -2.07268190     -0.64662376
  C      4.92390039      0.73066125      0.78136219
  C      4.58510373      2.21101508      0.56332309
  P      2.69929501      2.48831758      0.69289983
  C      1.72320118      0.82549808     -1.75591713
  O      1.55385457      1.18289353     -2.86628961
  H      4.21696206     -1.86576930      1.09074164
  H      5.48586576     -1.81363753     -0.14158256
  H      3.74586086     -3.54968621     -0.70092993
  H      3.81013077     -2.29473638     -1.94117568
  H      5.99700495      0.56125260      0.61870318
  H      4.69363850      0.42003726      1.80638291
  H      4.90072877      2.53686491     -0.43558155
  H      5.11959605      2.83241611      1.28943679
  H      4.36100218      0.09994461     -1.10430279
  C      2.35593348      4.04725173     -0.29603776
  H      1.29508988      4.29397098     -0.20821593
  H      2.58696448      3.87696427     -1.34993793
  H      2.95525524      4.88041343      0.08121910
  C      2.41117568      3.01323577      2.47732691
  H      2.74950783      2.22842151      3.15806211
  H      1.34259698      3.17974111      2.63409165
  H      2.95382223      3.93832120      2.69276044
  C      1.12144945     -3.32555459      0.63083947
  H      1.28197612     -4.34186447      0.25928268
  H      0.05536600     -3.17608784      0.81665740
  H      1.66563722     -3.19502311      1.56949103
  C      0.86482413     -2.61439298     -2.23140291
  H      1.05513338     -3.67290668     -2.42854771
  H     -0.21085443     -2.45143252     -2.12909029
  H      1.22777482     -2.01517735     -3.06938258
$end
--------------------------------------------------------------
 ----------------------------------------------------
       Standard Nuclear Orientation (Angstroms)
    I     Atom         X            Y            Z
 ----------------------------------------------------
    1      C       0.190769     0.111965     1.847366
    2      O      -0.048306     0.587387     0.535779
    3      H      -0.040092     0.851399     2.625470
    4      H      -0.305670    -0.842086     2.068936
    5      H       1.324156    -0.107095     2.011550
    6      Ru      1.931068     0.280701    -0.017303
    7      N       4.121646    -0.155820    -0.142021
    8      C       4.419427    -1.624302     0.041282
    9      C       3.560775    -2.487531    -0.890892
   10      P       1.713171    -2.072682    -0.646624
   11      C       4.923900     0.730661     0.781362
   12      C       4.585104     2.211015     0.563323
   13      P       2.699295     2.488318     0.692900
   14      C       1.723201     0.825498    -1.755917
   15      O       1.553855     1.182894    -2.866290
   16      H       4.216962    -1.865769     1.090742
   17      H       5.485866    -1.813638    -0.141583
   18      H       3.745861    -3.549686    -0.700930
   19      H       3.810131    -2.294736    -1.941176
   20      H       5.997005     0.561253     0.618703
   21      H       4.693638     0.420037     1.806383
   22      H       4.900729     2.536865    -0.435582
   23      H       5.119596     2.832416     1.289437
   24      H       4.361002     0.099945    -1.104303
   25      C       2.355933     4.047252    -0.296038
   26      H       1.295090     4.293971    -0.208216
   27      H       2.586964     3.876964    -1.349938
   28      H       2.955255     4.880413     0.081219
   29      C       2.411176     3.013236     2.477327
   30      H       2.749508     2.228422     3.158062
   31      H       1.342597     3.179741     2.634092
   32      H       2.953822     3.938321     2.692760
   33      C       1.121449    -3.325555     0.630839
   34      H       1.281976    -4.341864     0.259283
   35      H       0.055366    -3.176088     0.816657
   36      H       1.665637    -3.195023     1.569491
   37      C       0.864824    -2.614393    -2.231403
   38      H       1.055133    -3.672907    -2.428548
   39      H      -0.210854    -2.451433    -2.129090
   40      H       1.227775    -2.015177    -3.069383
 ----------------------------------------------------
 Nuclear Repulsion Energy =  1296.4847867977 hartrees
 There are       66 alpha and       66 beta electrons
 Requested basis set is LANL2DZ
 There are 103 shells and 203 basis functions

Total QAlloc Memory Limit   2000 MB
Mega-Array Size        77 MB
MEM_STATIC part        62 MB
 length of FILE_MO_COEFS: 0 
 A cutoff of  1.0D-09 yielded   3911 shell pairs
 There are     16854 function pairs (     17265 Cartesian)
 Requested basis set is LANL2DZ
 Compound shells will be simplified
 There are 129 shells and 203 basis functions
 A cutoff of  1.0D-09 yielded   6255 shell pairs
 There are     16781 function pairs (     17192 Cartesian)
 Smallest overlap matrix eigenvalue = 4.69E-03
 Guess from superposition of atomic densities
 Warning:  Energy on first SCF cycle will be non-variational
 A restricted hybrid HF-DFT SCF calculation will be
 performed using Pulay DIIS extrapolation
 Exchange:     0.2000 Hartree-Fock + 0.0800 Slater + 0.7200 Becke88
 Correlation:  0.8100 LYP + 0.1900 VWN1RPA
 Using SG-1 standard quadrature grid
 Inaccurate integrated density:
   Number of electrons =   132
   Numerical integral  =   133.003250059531
   Relative error      =     0.7600379239 %
 ---------------------------------------
  Cycle       Energy         DIIS Error
 ---------------------------------------
    1    -709.4102988342      5.92E-02
    2    -706.6815921825      1.09E-02
    3    -700.3589653124      3.14E-02
    4    -706.9750151981      7.71E-03
    5    -707.2512411948      2.73E-03
    6    -707.2333583561      3.28E-03
    7    -707.2875160663      4.67E-04
    8    -707.2885794889      1.75E-04
    9    -707.2887102499      6.57E-05
   10    -707.2887281474      2.37E-05
   11    -707.2887310562      8.94E-06
   12    -707.2887316726      2.53E-06
   13    -707.2887318326      1.05E-06
   14    -707.2887320624      3.72E-07 Convergence criterion met
 ---------------------------------------
 SCF time:  CPU 178.20 s  wall 174.64 s
 SCF   energy in the final basis set = -707.2887320624
 Total energy in the final basis set = -707.2887320624
 No wavefunction analysis requested
 Finite diff step size: 1.89e-03 a.u.
 ----------------------------------------------------
       Standard Nuclear Orientation (Angstroms)
    I     Atom         X            Y            Z
 ----------------------------------------------------
    1      C       0.189769     0.111965     1.847366
    2      O      -0.048306     0.587387     0.535779
    3      H      -0.040092     0.851399     2.625470
    4      H      -0.305670    -0.842086     2.068936
    5      H       1.324156    -0.107095     2.011550
    6      Ru      1.931068     0.280701    -0.017303
    7      N       4.121646    -0.155820    -0.142021
    8      C       4.419427    -1.624302     0.041282
    9      C       3.560775    -2.487531    -0.890892
   10      P       1.713171    -2.072682    -0.646624
   11      C       4.923900     0.730661     0.781362
   12      C       4.585104     2.211015     0.563323
   13      P       2.699295     2.488318     0.692900
   14      C       1.723201     0.825498    -1.755917
   15      O       1.553855     1.182894    -2.866290
   16      H       4.216962    -1.865769     1.090742
   17      H       5.485866    -1.813638    -0.141583
   18      H       3.745861    -3.549686    -0.700930
   19      H       3.810131    -2.294736    -1.941176
   20      H       5.997005     0.561253     0.618703
   21      H       4.693638     0.420037     1.806383
   22      H       4.900729     2.536865    -0.435582
   23      H       5.119596     2.832416     1.289437
   24      H       4.361002     0.099945    -1.104303
   25      C       2.355933     4.047252    -0.296038
   26      H       1.295090     4.293971    -0.208216
   27      H       2.586964     3.876964    -1.349938
   28      H       2.955255     4.880413     0.081219
   29      C       2.411176     3.013236     2.477327
   30      H       2.749508     2.228422     3.158062
   31      H       1.342597     3.179741     2.634092
   32      H       2.953822     3.938321     2.692760
   33      C       1.121449    -3.325555     0.630839
   34      H       1.281976    -4.341864     0.259283
   35      H       0.055366    -3.176088     0.816657
   36      H       1.665637    -3.195023     1.569491
   37      C       0.864824    -2.614393    -2.231403
   38      H       1.055133    -3.672907    -2.428548
   39      H      -0.210854    -2.451433    -2.129090
   40      H       1.227775    -2.015177    -3.069383
 ----------------------------------------------------
 Nuclear Repulsion Energy =  1296.4723706605 hartrees
 There are       66 alpha and       66 beta electrons
 Requested basis set is LANL2DZ
 There are 103 shells and 203 basis functions
 A cutoff of  1.0D-09 yielded   3911 shell pairs
 There are     16854 function pairs (     17265 Cartesian)
 Requested basis set is LANL2DZ
 Compound shells will be simplified
 There are 129 shells and 203 basis functions
 A cutoff of  1.0D-09 yielded   6255 shell pairs
 There are     16781 function pairs (     17192 Cartesian)
 ----------------------------------------------------
       Standard Nuclear Orientation (Angstroms)
    I     Atom         X            Y            Z
 ----------------------------------------------------
    1      C       0.190769     0.112965     1.847366
    2      O      -0.048306     0.587387     0.535779
    3      H      -0.040092     0.851399     2.625470
    4      H      -0.305670    -0.842086     2.068936
    5      H       1.324156    -0.107095     2.011550
    6      Ru      1.931068     0.280701    -0.017303
    7      N       4.121646    -0.155820    -0.142021
    8      C       4.419427    -1.624302     0.041282
    9      C       3.560775    -2.487531    -0.890892
   10      P       1.713171    -2.072682    -0.646624
   11      C       4.923900     0.730661     0.781362
   12      C       4.585104     2.211015     0.563323
   13      P       2.699295     2.488318     0.692900
   14      C       1.723201     0.825498    -1.755917
   15      O       1.553855     1.182894    -2.866290
   16      H       4.216962    -1.865769     1.090742
   17      H       5.485866    -1.813638    -0.141583
   18      H       3.745861    -3.549686    -0.700930
   19      H       3.810131    -2.294736    -1.941176
   20      H       5.997005     0.561253     0.618703
   21      H       4.693638     0.420037     1.806383
   22      H       4.900729     2.536865    -0.435582
   23      H       5.119596     2.832416     1.289437
   24      H       4.361002     0.099945    -1.104303
   25      C       2.355933     4.047252    -0.296038
   26      H       1.295090     4.293971    -0.208216
   27      H       2.586964     3.876964    -1.349938
   28      H       2.955255     4.880413     0.081219
   29      C       2.411176     3.013236     2.477327
   30      H       2.749508     2.228422     3.158062
   31      H       1.342597     3.179741     2.634092
   32      H       2.953822     3.938321     2.692760
   33      C       1.121449    -3.325555     0.630839
   34      H       1.281976    -4.341864     0.259283
   35      H       0.055366    -3.176088     0.816657
   36      H       1.665637    -3.195023     1.569491
   37      C       0.864824    -2.614393    -2.231403
   38      H       1.055133    -3.672907    -2.428548
   39      H      -0.210854    -2.451433    -2.129090
   40      H       1.227775    -2.015177    -3.069383
 ----------------------------------------------------
 Nuclear Repulsion Energy =  1296.4887323665 hartrees
 There are       66 alpha and       66 beta electrons
 Requested basis set is LANL2DZ
 There are 103 shells and 203 basis functions
 A cutoff of  1.0D-09 yielded   3911 shell pairs
 There are     16854 function pairs (     17265 Cartesian)
 Requested basis set is LANL2DZ
 Compound shells will be simplified
 There are 129 shells and 203 basis functions
 A cutoff of  1.0D-09 yielded   6255 shell pairs
 There are     16781 function pairs (     17192 Cartesian)
 ----------------------------------------------------
       Standard Nuclear Orientation (Angstroms)
    I     Atom         X            Y            Z
 ----------------------------------------------------
    1      C       0.190769     0.111965     1.848366
    2      O      -0.048306     0.587387     0.535779
    3      H      -0.040092     0.851399     2.625470
    4      H      -0.305670    -0.842086     2.068936
    5      H       1.324156    -0.107095     2.011550
    6      Ru      1.931068     0.280701    -0.017303
    7      N       4.121646    -0.155820    -0.142021
    8      C       4.419427    -1.624302     0.041282
    9      C       3.560775    -2.487531    -0.890892
   10      P       1.713171    -2.072682    -0.646624
   11      C       4.923900     0.730661     0.781362
   12      C       4.585104     2.211015     0.563323
   13      P       2.699295     2.488318     0.692900
   14      C       1.723201     0.825498    -1.755917
   15      O       1.553855     1.182894    -2.866290
   16      H       4.216962    -1.865769     1.090742
   17      H       5.485866    -1.813638    -0.141583
   18      H       3.745861    -3.549686    -0.700930
   19      H       3.810131    -2.294736    -1.941176
   20      H       5.997005     0.561253     0.618703
   21      H       4.693638     0.420037     1.806383
   22      H       4.900729     2.536865    -0.435582
   23      H       5.119596     2.832416     1.289437
   24      H       4.361002     0.099945    -1.104303
   25      C       2.355933     4.047252    -0.296038
   26      H       1.295090     4.293971    -0.208216
   27      H       2.586964     3.876964    -1.349938
   28      H       2.955255     4.880413     0.081219
   29      C       2.411176     3.013236     2.477327
   30      H       2.749508     2.228422     3.158062
   31      H       1.342597     3.179741     2.634092
   32      H       2.953822     3.938321     2.692760
   33      C       1.121449    -3.325555     0.630839
   34      H       1.281976    -4.341864     0.259283
   35      H       0.055366    -3.176088     0.816657
   36      H       1.665637    -3.195023     1.569491
   37      C       0.864824    -2.614393    -2.231403
   38      H       1.055133    -3.672907    -2.428548
   39      H      -0.210854    -2.451433    -2.129090
   40      H       1.227775    -2.015177    -3.069383
 ----------------------------------------------------
 Nuclear Repulsion Energy =  1296.4634353313 hartrees
 There are       66 alpha and       66 beta electrons
 Requested basis set is LANL2DZ
 There are 103 shells and 203 basis functions
 A cutoff of  1.0D-09 yielded   3911 shell pairs
 There are     16854 function pairs (     17265 Cartesian)
 Requested basis set is LANL2DZ
 Compound shells will be simplified
 There are 129 shells and 203 basis functions
 A cutoff of  1.0D-09 yielded   6255 shell pairs
 There are     16781 function pairs (     17192 Cartesian)
 ----------------------------------------------------
       Standard Nuclear Orientation (Angstroms)
    I     Atom         X            Y            Z
 ----------------------------------------------------
    1      C       0.190769     0.111965     1.847366
    2      O      -0.047306     0.587387     0.535779
    3      H      -0.040092     0.851399     2.625470
    4      H      -0.305670    -0.842086     2.068936
    5      H       1.324156    -0.107095     2.011550
    6      Ru      1.931068     0.280701    -0.017303
    7      N       4.121646    -0.155820    -0.142021
    8      C       4.419427    -1.624302     0.041282
    9      C       3.560775    -2.487531    -0.890892
   10      P       1.713171    -2.072682    -0.646624
   11      C       4.923900     0.730661     0.781362
   12      C       4.585104     2.211015     0.563323
   13      P       2.699295     2.488318     0.692900
   14      C       1.723201     0.825498    -1.755917
   15      O       1.553855     1.182894    -2.866290
   16      H       4.216962    -1.865769     1.090742
   17      H       5.485866    -1.813638    -0.141583
   18      H       3.745861    -3.549686    -0.700930
   19      H       3.810131    -2.294736    -1.941176
   20      H       5.997005     0.561253     0.618703
   21      H       4.693638     0.420037     1.806383
   22      H       4.900729     2.536865    -0.435582
   23      H       5.119596     2.832416     1.289437
   24      H       4.361002     0.099945    -1.104303
   25      C       2.355933     4.047252    -0.296038
   26      H       1.295090     4.293971    -0.208216
   27      H       2.586964     3.876964    -1.349938
   28      H       2.955255     4.880413     0.081219
   29      C       2.411176     3.013236     2.477327
   30      H       2.749508     2.228422     3.158062
   31      H       1.342597     3.179741     2.634092
   32      H       2.953822     3.938321     2.692760
   33      C       1.121449    -3.325555     0.630839
   34      H       1.281976    -4.341864     0.259283
   35      H       0.055366    -3.176088     0.816657
   36      H       1.665637    -3.195023     1.569491
   37      C       0.864824    -2.614393    -2.231403
   38      H       1.055133    -3.672907    -2.428548
   39      H      -0.210854    -2.451433    -2.129090
   40      H       1.227775    -2.015177    -3.069383
 ----------------------------------------------------
 Nuclear Repulsion Energy =  1296.5174672143 hartrees
 There are       66 alpha and       66 beta electrons
 Requested basis set is LANL2DZ
 There are 103 shells and 203 basis functions
 A cutoff of  1.0D-09 yielded   3911 shell pairs
 There are     16854 function pairs (     17265 Cartesian)
 Requested basis set is LANL2DZ
 Compound shells will be simplified
 There are 129 shells and 203 basis functions
 A cutoff of  1.0D-09 yielded   6256 shell pairs
 There are     16782 function pairs (     17193 Cartesian)
 ----------------------------------------------------
       Standard Nuclear Orientation (Angstroms)
    I     Atom         X            Y            Z
 ----------------------------------------------------
    1      C       0.190769     0.111965     1.847366
    2      O      -0.048306     0.588387     0.535779
    3      H      -0.040092     0.851399     2.625470
    4      H      -0.305670    -0.842086     2.068936
    5      H       1.324156    -0.107095     2.011550
    6      Ru      1.931068     0.280701    -0.017303
    7      N       4.121646    -0.155820    -0.142021
    8      C       4.419427    -1.624302     0.041282
    9      C       3.560775    -2.487531    -0.890892
   10      P       1.713171    -2.072682    -0.646624
   11      C       4.923900     0.730661     0.781362
   12      C       4.585104     2.211015     0.563323
   13      P       2.699295     2.488318     0.692900
   14      C       1.723201     0.825498    -1.755917
   15      O       1.553855     1.182894    -2.866290
   16      H       4.216962    -1.865769     1.090742
   17      H       5.485866    -1.813638    -0.141583
   18      H       3.745861    -3.549686    -0.700930
   19      H       3.810131    -2.294736    -1.941176
   20      H       5.997005     0.561253     0.618703
   21      H       4.693638     0.420037     1.806383
   22      H       4.900729     2.536865    -0.435582
   23      H       5.119596     2.832416     1.289437
   24      H       4.361002     0.099945    -1.104303
   25      C       2.355933     4.047252    -0.296038
   26      H       1.295090     4.293971    -0.208216
   27      H       2.586964     3.876964    -1.349938
   28      H       2.955255     4.880413     0.081219
   29      C       2.411176     3.013236     2.477327
   30      H       2.749508     2.228422     3.158062
   31      H       1.342597     3.179741     2.634092
   32      H       2.953822     3.938321     2.692760
   33      C       1.121449    -3.325555     0.630839
   34      H       1.281976    -4.341864     0.259283
   35      H       0.055366    -3.176088     0.816657
   36      H       1.665637    -3.195023     1.569491
   37      C       0.864824    -2.614393    -2.231403
   38      H       1.055133    -3.672907    -2.428548
   39      H      -0.210854    -2.451433    -2.129090
   40      H       1.227775    -2.015177    -3.069383
 ----------------------------------------------------
 Nuclear Repulsion Energy =  1296.4759325628 hartrees
 There are       66 alpha and       66 beta electrons
 Requested basis set is LANL2DZ
 There are 103 shells and 203 basis functions
 A cutoff of  1.0D-09 yielded   3911 shell pairs
 There are     16854 function pairs (     17265 Cartesian)
 Requested basis set is LANL2DZ
 Compound shells will be simplified
 There are 129 shells and 203 basis functions
 A cutoff of  1.0D-09 yielded   6256 shell pairs
 There are     16782 function pairs (     17193 Cartesian)
 ----------------------------------------------------
       Standard Nuclear Orientation (Angstroms)
    I     Atom         X            Y            Z
 ----------------------------------------------------
    1      C       0.190769     0.111965     1.847366
    2      O      -0.048306     0.587387     0.534779
    3      H      -0.040092     0.851399     2.625470
    4      H      -0.305670    -0.842086     2.068936
    5      H       1.324156    -0.107095     2.011550
    6      Ru      1.931068     0.280701    -0.017303
    7      N       4.121646    -0.155820    -0.142021
    8      C       4.419427    -1.624302     0.041282
    9      C       3.560775    -2.487531    -0.890892
   10      P       1.713171    -2.072682    -0.646624
   11      C       4.923900     0.730661     0.781362
   12      C       4.585104     2.211015     0.563323
   13      P       2.699295     2.488318     0.692900
   14      C       1.723201     0.825498    -1.755917
   15      O       1.553855     1.182894    -2.866290
   16      H       4.216962    -1.865769     1.090742
   17      H       5.485866    -1.813638    -0.141583
   18      H       3.745861    -3.549686    -0.700930
   19      H       3.810131    -2.294736    -1.941176
   20      H       5.997005     0.561253     0.618703
   21      H       4.693638     0.420037     1.806383
   22      H       4.900729     2.536865    -0.435582
   23      H       5.119596     2.832416     1.289437
   24      H       4.361002     0.099945    -1.104303
   25      C       2.355933     4.047252    -0.296038
   26      H       1.295090     4.293971    -0.208216
   27      H       2.586964     3.876964    -1.349938
   28      H       2.955255     4.880413     0.081219
   29      C       2.411176     3.013236     2.477327
   30      H       2.749508     2.228422     3.158062
   31      H       1.342597     3.179741     2.634092
   32      H       2.953822     3.938321     2.692760
   33      C       1.121449    -3.325555     0.630839
   34      H       1.281976    -4.341864     0.259283
   35      H       0.055366    -3.176088     0.816657
   36      H       1.665637    -3.195023     1.569491
   37      C       0.864824    -2.614393    -2.231403
   38      H       1.055133    -3.672907    -2.428548
   39      H      -0.210854    -2.451433    -2.129090
   40      H       1.227775    -2.015177    -3.069383
 ----------------------------------------------------
 Nuclear Repulsion Energy =  1296.4810263029 hartrees
 There are       66 alpha and       66 beta electrons
 Requested basis set is LANL2DZ
 There are 103 shells and 203 basis functions
 A cutoff of  1.0D-09 yielded   3911 shell pairs
 There are     16854 function pairs (     17265 Cartesian)
 Requested basis set is LANL2DZ
 Compound shells will be simplified
 There are 129 shells and 203 basis functions
 A cutoff of  1.0D-09 yielded   6255 shell pairs
 There are     16781 function pairs (     17192 Cartesian)
 ----------------------------------------------------
       Standard Nuclear Orientation (Angstroms)
    I     Atom         X            Y            Z
 ----------------------------------------------------
    1      C       0.190769     0.111965     1.847366
    2      O      -0.048306     0.587387     0.535779
    3      H      -0.039092     0.851399     2.625470
    4      H      -0.305670    -0.842086     2.068936
    5      H       1.324156    -0.107095     2.011550
    6      Ru      1.931068     0.280701    -0.017303
    7      N       4.121646    -0.155820    -0.142021
    8      C       4.419427    -1.624302     0.041282
    9      C       3.560775    -2.487531    -0.890892
   10      P       1.713171    -2.072682    -0.646624
   11      C       4.923900     0.730661     0.781362
   12      C       4.585104     2.211015     0.563323
   13      P       2.699295     2.488318     0.692900
   14      C       1.723201     0.825498    -1.755917
   15      O       1.553855     1.182894    -2.866290
   16      H       4.216962    -1.865769     1.090742
   17      H       5.485866    -1.813638    -0.141583
   18      H       3.745861    -3.549686    -0.700930
   19      H       3.810131    -2.294736    -1.941176
   20      H       5.997005     0.561253     0.618703
   21      H       4.693638     0.420037     1.806383
   22      H       4.900729     2.536865    -0.435582
   23      H       5.119596     2.832416     1.289437
   24      H       4.361002     0.099945    -1.104303
   25      C       2.355933     4.047252    -0.296038
   26      H       1.295090     4.293971    -0.208216
   27      H       2.586964     3.876964    -1.349938
   28      H       2.955255     4.880413     0.081219
   29      C       2.411176     3.013236     2.477327
   30      H       2.749508     2.228422     3.158062
   31      H       1.342597     3.179741     2.634092
   32      H       2.953822     3.938321     2.692760
   33      C       1.121449    -3.325555     0.630839
   34      H       1.281976    -4.341864     0.259283
   35      H       0.055366    -3.176088     0.816657
   36      H       1.665637    -3.195023     1.569491
   37      C       0.864824    -2.614393    -2.231403
   38      H       1.055133    -3.672907    -2.428548
   39      H      -0.210854    -2.451433    -2.129090
   40      H       1.227775    -2.015177    -3.069383
 ----------------------------------------------------
 Nuclear Repulsion Energy =  1296.4871987500 hartrees
 There are       66 alpha and       66 beta electrons
 Requested basis set is LANL2DZ
 There are 103 shells and 203 basis functions
 A cutoff of  1.0D-09 yielded   3911 shell pairs
 There are     16854 function pairs (     17265 Cartesian)
 Requested basis set is LANL2DZ
 Compound shells will be simplified
 There are 129 shells and 203 basis functions
 A cutoff of  1.0D-09 yielded   6255 shell pairs
 There are     16781 function pairs (     17192 Cartesian)
 ----------------------------------------------------
       Standard Nuclear Orientation (Angstroms)
    I     Atom         X            Y            Z
 ----------------------------------------------------
    1      C       0.190769     0.111965     1.847366
    2      O      -0.048306     0.587387     0.535779
    3      H      -0.040092     0.852399     2.625470
    4      H      -0.305670    -0.842086     2.068936
    5      H       1.324156    -0.107095     2.011550
    6      Ru      1.931068     0.280701    -0.017303
    7      N       4.121646    -0.155820    -0.142021
    8      C       4.419427    -1.624302     0.041282
    9      C       3.560775    -2.487531    -0.890892
   10      P       1.713171    -2.072682    -0.646624
   11      C       4.923900     0.730661     0.781362
   12      C       4.585104     2.211015     0.563323
   13      P       2.699295     2.488318     0.692900
   14      C       1.723201     0.825498    -1.755917
   15      O       1.553855     1.182894    -2.866290
   16      H       4.216962    -1.865769     1.090742
   17      H       5.485866    -1.813638    -0.141583
   18      H       3.745861    -3.549686    -0.700930
   19      H       3.810131    -2.294736    -1.941176
   20      H       5.997005     0.561253     0.618703
   21      H       4.693638     0.420037     1.806383
   22      H       4.900729     2.536865    -0.435582
   23      H       5.119596     2.832416     1.289437
   24      H       4.361002     0.099945    -1.104303
   25      C       2.355933     4.047252    -0.296038
   26      H       1.295090     4.293971    -0.208216
   27      H       2.586964     3.876964    -1.349938
   28      H       2.955255     4.880413     0.081219
   29      C       2.411176     3.013236     2.477327
   30      H       2.749508     2.228422     3.158062
   31      H       1.342597     3.179741     2.634092
   32      H       2.953822     3.938321     2.692760
   33      C       1.121449    -3.325555     0.630839
   34      H       1.281976    -4.341864     0.259283
   35      H       0.055366    -3.176088     0.816657
   36      H       1.665637    -3.195023     1.569491
   37      C       0.864824    -2.614393    -2.231403
   38      H       1.055133    -3.672907    -2.428548
   39      H      -0.210854    -2.451433    -2.129090
   40      H       1.227775    -2.015177    -3.069383
 ----------------------------------------------------
 Nuclear Repulsion Energy =  1296.4825931508 hartrees
 There are       66 alpha and       66 beta electrons
 Requested basis set is LANL2DZ
 There are 103 shells and 203 basis functions
 A cutoff of  1.0D-09 yielded   3911 shell pairs
 There are     16854 function pairs (     17265 Cartesian)
 Requested basis set is LANL2DZ
 Compound shells will be simplified
 There are 129 shells and 203 basis functions
 A cutoff of  1.0D-09 yielded   6255 shell pairs
 There are     16781 function pairs (     17192 Cartesian)
 ----------------------------------------------------
       Standard Nuclear Orientation (Angstroms)
    I     Atom         X            Y            Z
 ----------------------------------------------------
    1      C       0.190769     0.111965     1.847366
    2      O      -0.048306     0.587387     0.535779
    3      H      -0.040092     0.851399     2.626470
    4      H      -0.305670    -0.842086     2.068936
    5      H       1.324156    -0.107095     2.011550
    6      Ru      1.931068     0.280701    -0.017303
    7      N       4.121646    -0.155820    -0.142021
    8      C       4.419427    -1.624302     0.041282
    9      C       3.560775    -2.487531    -0.890892
   10      P       1.713171    -2.072682    -0.646624
   11      C       4.923900     0.730661     0.781362
   12      C       4.585104     2.211015     0.563323
   13      P       2.699295     2.488318     0.692900
   14      C       1.723201     0.825498    -1.755917
   15      O       1.553855     1.182894    -2.866290
   16      H       4.216962    -1.865769     1.090742
   17      H       5.485866    -1.813638    -0.141583
   18      H       3.745861    -3.549686    -0.700930
   19      H       3.810131    -2.294736    -1.941176
   20      H       5.997005     0.561253     0.618703
   21      H       4.693638     0.420037     1.806383
   22      H       4.900729     2.536865    -0.435582
   23      H       5.119596     2.832416     1.289437
   24      H       4.361002     0.099945    -1.104303
   25      C       2.355933     4.047252    -0.296038
   26      H       1.295090     4.293971    -0.208216
   27      H       2.586964     3.876964    -1.349938
   28      H       2.955255     4.880413     0.081219
   29      C       2.411176     3.013236     2.477327
   30      H       2.749508     2.228422     3.158062
   31      H       1.342597     3.179741     2.634092
   32      H       2.953822     3.938321     2.692760
   33      C       1.121449    -3.325555     0.630839
   34      H       1.281976    -4.341864     0.259283
   35      H       0.055366    -3.176088     0.816657
   36      H       1.665637    -3.195023     1.569491
   37      C       0.864824    -2.614393    -2.231403
   38      H       1.055133    -3.672907    -2.428548
   39      H      -0.210854    -2.451433    -2.129090
   40      H       1.227775    -2.015177    -3.069383
 ----------------------------------------------------
 Nuclear Repulsion Energy =  1296.4802243848 hartrees
 There are       66 alpha and       66 beta electrons
 Requested basis set is LANL2DZ
 There are 103 shells and 203 basis functions
 A cutoff of  1.0D-09 yielded   3911 shell pairs
 There are     16854 function pairs (     17265 Cartesian)
 Requested basis set is LANL2DZ
 Compound shells will be simplified
 There are 129 shells and 203 basis functions
 A cutoff of  1.0D-09 yielded   6255 shell pairs
 There are     16781 function pairs (     17192 Cartesian)
 ----------------------------------------------------
       Standard Nuclear Orientation (Angstroms)
    I     Atom         X            Y            Z
 ----------------------------------------------------
    1      C       0.190769     0.111965     1.847366
    2      O      -0.048306     0.587387     0.535779
    3      H      -0.040092     0.851399     2.625470
    4      H      -0.304670    -0.842086     2.068936
    5      H       1.324156    -0.107095     2.011550
    6      Ru      1.931068     0.280701    -0.017303
    7      N       4.121646    -0.155820    -0.142021
    8      C       4.419427    -1.624302     0.041282
    9      C       3.560775    -2.487531    -0.890892
   10      P       1.713171    -2.072682    -0.646624
   11      C       4.923900     0.730661     0.781362
   12      C       4.585104     2.211015     0.563323
   13      P       2.699295     2.488318     0.692900
   14      C       1.723201     0.825498    -1.755917
   15      O       1.553855     1.182894    -2.866290
   16      H       4.216962    -1.865769     1.090742
   17      H       5.485866    -1.813638    -0.141583
   18      H       3.745861    -3.549686    -0.700930
   19      H       3.810131    -2.294736    -1.941176
   20      H       5.997005     0.561253     0.618703
   21      H       4.693638     0.420037     1.806383
   22      H       4.900729     2.536865    -0.435582
   23      H       5.119596     2.832416     1.289437
   24      H       4.361002     0.099945    -1.104303
   25      C       2.355933     4.047252    -0.296038
   26      H       1.295090     4.293971    -0.208216
   27      H       2.586964     3.876964    -1.349938
   28      H       2.955255     4.880413     0.081219
   29      C       2.411176     3.013236     2.477327
   30      H       2.749508     2.228422     3.158062
   31      H       1.342597     3.179741     2.634092
   32      H       2.953822     3.938321     2.692760
   33      C       1.121449    -3.325555     0.630839
   34      H       1.281976    -4.341864     0.259283
   35      H       0.055366    -3.176088     0.816657
   36      H       1.665637    -3.195023     1.569491
   37      C       0.864824    -2.614393    -2.231403
   38      H       1.055133    -3.672907    -2.428548
   39      H      -0.210854    -2.451433    -2.129090
   40      H       1.227775    -2.015177    -3.069383
 ----------------------------------------------------
 Nuclear Repulsion Energy =  1296.4881393496 hartrees
 There are       66 alpha and       66 beta electrons
 Requested basis set is LANL2DZ
 There are 103 shells and 203 basis functions
 A cutoff of  1.0D-09 yielded   3911 shell pairs
 There are     16854 function pairs (     17265 Cartesian)
 Requested basis set is LANL2DZ
 Compound shells will be simplified
 There are 129 shells and 203 basis functions
 A cutoff of  1.0D-09 yielded   6255 shell pairs
 There are     16781 function pairs (     17192 Cartesian)
 ----------------------------------------------------
       Standard Nuclear Orientation (Angstroms)
    I     Atom         X            Y            Z
 ----------------------------------------------------
    1      C       0.190769     0.111965     1.847366
    2      O      -0.048306     0.587387     0.535779
    3      H      -0.040092     0.851399     2.625470
    4      H      -0.305670    -0.841086     2.068936
    5      H       1.324156    -0.107095     2.011550
    6      Ru      1.931068     0.280701    -0.017303
    7      N       4.121646    -0.155820    -0.142021
    8      C       4.419427    -1.624302     0.041282
    9      C       3.560775    -2.487531    -0.890892
   10      P       1.713171    -2.072682    -0.646624
   11      C       4.923900     0.730661     0.781362
   12      C       4.585104     2.211015     0.563323
   13      P       2.699295     2.488318     0.692900
   14      C       1.723201     0.825498    -1.755917
   15      O       1.553855     1.182894    -2.866290
   16      H       4.216962    -1.865769     1.090742
   17      H       5.485866    -1.813638    -0.141583
   18      H       3.745861    -3.549686    -0.700930
   19      H       3.810131    -2.294736    -1.941176
   20      H       5.997005     0.561253     0.618703
   21      H       4.693638     0.420037     1.806383
   22      H       4.900729     2.536865    -0.435582
   23      H       5.119596     2.832416     1.289437
   24      H       4.361002     0.099945    -1.104303
   25      C       2.355933     4.047252    -0.296038
   26      H       1.295090     4.293971    -0.208216
   27      H       2.586964     3.876964    -1.349938
   28      H       2.955255     4.880413     0.081219
   29      C       2.411176     3.013236     2.477327
   30      H       2.749508     2.228422     3.158062
   31      H       1.342597     3.179741     2.634092
   32      H       2.953822     3.938321     2.692760
   33      C       1.121449    -3.325555     0.630839
   34      H       1.281976    -4.341864     0.259283
   35      H       0.055366    -3.176088     0.816657
   36      H       1.665637    -3.195023     1.569491
   37      C       0.864824    -2.614393    -2.231403
   38      H       1.055133    -3.672907    -2.428548
   39      H      -0.210854    -2.451433    -2.129090
   40      H       1.227775    -2.015177    -3.069383
 ----------------------------------------------------
 Nuclear Repulsion Energy =  1296.4882038220 hartrees
 There are       66 alpha and       66 beta electrons
 Requested basis set is LANL2DZ
 There are 103 shells and 203 basis functions
 A cutoff of  1.0D-09 yielded   3911 shell pairs
 There are     16854 function pairs (     17265 Cartesian)
 Requested basis set is LANL2DZ
 Compound shells will be simplified
 There are 129 shells and 203 basis functions
 A cutoff of  1.0D-09 yielded   6255 shell pairs
 There are     16781 function pairs (     17192 Cartesian)
 ----------------------------------------------------
       Standard Nuclear Orientation (Angstroms)
    I     Atom         X            Y            Z
 ----------------------------------------------------
    1      C       0.190769     0.111965     1.847366
    2      O      -0.048306     0.587387     0.535779
    3      H      -0.040092     0.851399     2.625470
    4      H      -0.305670    -0.842086     2.069936
    5      H       1.324156    -0.107095     2.011550
    6      Ru      1.931068     0.280701    -0.017303
    7      N       4.121646    -0.155820    -0.142021
    8      C       4.419427    -1.624302     0.041282
    9      C       3.560775    -2.487531    -0.890892
   10      P       1.713171    -2.072682    -0.646624
   11      C       4.923900     0.730661     0.781362
   12      C       4.585104     2.211015     0.563323
   13      P       2.699295     2.488318     0.692900
   14      C       1.723201     0.825498    -1.755917
   15      O       1.553855     1.182894    -2.866290
   16      H       4.216962    -1.865769     1.090742
   17      H       5.485866    -1.813638    -0.141583
   18      H       3.745861    -3.549686    -0.700930
   19      H       3.810131    -2.294736    -1.941176
   20      H       5.997005     0.561253     0.618703
   21      H       4.693638     0.420037     1.806383
   22      H       4.900729     2.536865    -0.435582
   23      H       5.119596     2.832416     1.289437
   24      H       4.361002     0.099945    -1.104303
   25      C       2.355933     4.047252    -0.296038
   26      H       1.295090     4.293971    -0.208216
   27      H       2.586964     3.876964    -1.349938
   28      H       2.955255     4.880413     0.081219
   29      C       2.411176     3.013236     2.477327
   30      H       2.749508     2.228422     3.158062
   31      H       1.342597     3.179741     2.634092
   32      H       2.953822     3.938321     2.692760
   33      C       1.121449    -3.325555     0.630839
   34      H       1.281976    -4.341864     0.259283
   35      H       0.055366    -3.176088     0.816657
   36      H       1.665637    -3.195023     1.569491
   37      C       0.864824    -2.614393    -2.231403
   38      H       1.055133    -3.672907    -2.428548
   39      H      -0.210854    -2.451433    -2.129090
   40      H       1.227775    -2.015177    -3.069383
 ----------------------------------------------------
 Nuclear Repulsion Energy =  1296.4820005729 hartrees
 There are       66 alpha and       66 beta electrons
 Requested basis set is LANL2DZ
 There are 103 shells and 203 basis functions
 A cutoff of  1.0D-09 yielded   3911 shell pairs
 There are     16854 function pairs (     17265 Cartesian)
 Requested basis set is LANL2DZ
 Compound shells will be simplified
 There are 129 shells and 203 basis functions
 A cutoff of  1.0D-09 yielded   6255 shell pairs
 There are     16781 function pairs (     17192 Cartesian)
 ----------------------------------------------------
       Standard Nuclear Orientation (Angstroms)
    I     Atom         X            Y            Z
 ----------------------------------------------------
    1      C       0.190769     0.111965     1.847366
    2      O      -0.048306     0.587387     0.535779
    3      H      -0.040092     0.851399     2.625470
    4      H      -0.305670    -0.842086     2.068936
    5      H       1.325156    -0.107095     2.011550
    6      Ru      1.931068     0.280701    -0.017303
    7      N       4.121646    -0.155820    -0.142021
    8      C       4.419427    -1.624302     0.041282
    9      C       3.560775    -2.487531    -0.890892
   10      P       1.713171    -2.072682    -0.646624
   11      C       4.923900     0.730661     0.781362
   12      C       4.585104     2.211015     0.563323
   13      P       2.699295     2.488318     0.692900
   14      C       1.723201     0.825498    -1.755917
   15      O       1.553855     1.182894    -2.866290
   16      H       4.216962    -1.865769     1.090742
   17      H       5.485866    -1.813638    -0.141583
   18      H       3.745861    -3.549686    -0.700930
   19      H       3.810131    -2.294736    -1.941176
   20      H       5.997005     0.561253     0.618703
   21      H       4.693638     0.420037     1.806383
   22      H       4.900729     2.536865    -0.435582
   23      H       5.119596     2.832416     1.289437
   24      H       4.361002     0.099945    -1.104303
   25      C       2.355933     4.047252    -0.296038
   26      H       1.295090     4.293971    -0.208216
   27      H       2.586964     3.876964    -1.349938
   28      H       2.955255     4.880413     0.081219
   29      C       2.411176     3.013236     2.477327
   30      H       2.749508     2.228422     3.158062
   31      H       1.342597     3.179741     2.634092
   32      H       2.953822     3.938321     2.692760
   33      C       1.121449    -3.325555     0.630839
   34      H       1.281976    -4.341864     0.259283
   35      H       0.055366    -3.176088     0.816657
   36      H       1.665637    -3.195023     1.569491
   37      C       0.864824    -2.614393    -2.231403
   38      H       1.055133    -3.672907    -2.428548
   39      H      -0.210854    -2.451433    -2.129090
   40      H       1.227775    -2.015177    -3.069383
 ----------------------------------------------------
 Nuclear Repulsion Energy =  1296.4834405073 hartrees
 There are       66 alpha and       66 beta electrons
 Requested basis set is LANL2DZ
 There are 103 shells and 203 basis functions
 A cutoff of  1.0D-09 yielded   3911 shell pairs
 There are     16854 function pairs (     17265 Cartesian)
 Requested basis set is LANL2DZ
 Compound shells will be simplified
 There are 129 shells and 203 basis functions
 A cutoff of  1.0D-09 yielded   6255 shell pairs
 There are     16781 function pairs (     17192 Cartesian)
 ----------------------------------------------------
       Standard Nuclear Orientation (Angstroms)
    I     Atom         X            Y            Z
 ----------------------------------------------------
    1      C       0.190769     0.111965     1.847366
    2      O      -0.048306     0.587387     0.535779
    3      H      -0.040092     0.851399     2.625470
    4      H      -0.305670    -0.842086     2.068936
    5      H       1.324156    -0.106095     2.011550
    6      Ru      1.931068     0.280701    -0.017303
    7      N       4.121646    -0.155820    -0.142021
    8      C       4.419427    -1.624302     0.041282
    9      C       3.560775    -2.487531    -0.890892
   10      P       1.713171    -2.072682    -0.646624
   11      C       4.923900     0.730661     0.781362
   12      C       4.585104     2.211015     0.563323
   13      P       2.699295     2.488318     0.692900
   14      C       1.723201     0.825498    -1.755917
   15      O       1.553855     1.182894    -2.866290
   16      H       4.216962    -1.865769     1.090742
   17      H       5.485866    -1.813638    -0.141583
   18      H       3.745861    -3.549686    -0.700930
   19      H       3.810131    -2.294736    -1.941176
   20      H       5.997005     0.561253     0.618703
   21      H       4.693638     0.420037     1.806383
   22      H       4.900729     2.536865    -0.435582
   23      H       5.119596     2.832416     1.289437
   24      H       4.361002     0.099945    -1.104303
   25      C       2.355933     4.047252    -0.296038
   26      H       1.295090     4.293971    -0.208216
   27      H       2.586964     3.876964    -1.349938
   28      H       2.955255     4.880413     0.081219
   29      C       2.411176     3.013236     2.477327
   30      H       2.749508     2.228422     3.158062
   31      H       1.342597     3.179741     2.634092
   32      H       2.953822     3.938321     2.692760
   33      C       1.121449    -3.325555     0.630839
   34      H       1.281976    -4.341864     0.259283
   35      H       0.055366    -3.176088     0.816657
   36      H       1.665637    -3.195023     1.569491
   37      C       0.864824    -2.614393    -2.231403
   38      H       1.055133    -3.672907    -2.428548
   39      H      -0.210854    -2.451433    -2.129090
   40      H       1.227775    -2.015177    -3.069383
 ----------------------------------------------------
 Nuclear Repulsion Energy =  1296.4860953162 hartrees
 There are       66 alpha and       66 beta electrons
 Requested basis set is LANL2DZ
 There are 103 shells and 203 basis functions
 A cutoff of  1.0D-09 yielded   3911 shell pairs
 There are     16854 function pairs (     17265 Cartesian)
 Requested basis set is LANL2DZ
 Compound shells will be simplified
 There are 129 shells and 203 basis functions
 A cutoff of  1.0D-09 yielded   6255 shell pairs
 There are     16781 function pairs (     17192 Cartesian)
 ----------------------------------------------------
       Standard Nuclear Orientation (Angstroms)
    I     Atom         X            Y            Z
 ----------------------------------------------------
    1      C       0.190769     0.111965     1.847366
    2      O      -0.048306     0.587387     0.535779
    3      H      -0.040092     0.851399     2.625470
    4      H      -0.305670    -0.842086     2.068936
    5      H       1.324156    -0.107095     2.012550
    6      Ru      1.931068     0.280701    -0.017303
    7      N       4.121646    -0.155820    -0.142021
    8      C       4.419427    -1.624302     0.041282
    9      C       3.560775    -2.487531    -0.890892
   10      P       1.713171    -2.072682    -0.646624
   11      C       4.923900     0.730661     0.781362
   12      C       4.585104     2.211015     0.563323
   13      P       2.699295     2.488318     0.692900
   14      C       1.723201     0.825498    -1.755917
   15      O       1.553855     1.182894    -2.866290
   16      H       4.216962    -1.865769     1.090742
   17      H       5.485866    -1.813638    -0.141583
   18      H       3.745861    -3.549686    -0.700930
   19      H       3.810131    -2.294736    -1.941176
   20      H       5.997005     0.561253     0.618703
   21      H       4.693638     0.420037     1.806383
   22      H       4.900729     2.536865    -0.435582
   23      H       5.119596     2.832416     1.289437
   24      H       4.361002     0.099945    -1.104303
   25      C       2.355933     4.047252    -0.296038
   26      H       1.295090     4.293971    -0.208216
   27      H       2.586964     3.876964    -1.349938
   28      H       2.955255     4.880413     0.081219
   29      C       2.411176     3.013236     2.477327
   30      H       2.749508     2.228422     3.158062
   31      H       1.342597     3.179741     2.634092
   32      H       2.953822     3.938321     2.692760
   33      C       1.121449    -3.325555     0.630839
   34      H       1.281976    -4.341864     0.259283
   35      H       0.055366    -3.176088     0.816657
   36      H       1.665637    -3.195023     1.569491
   37      C       0.864824    -2.614393    -2.231403
   38      H       1.055133    -3.672907    -2.428548
   39      H      -0.210854    -2.451433    -2.129090
   40      H       1.227775    -2.015177    -3.069383
 ----------------------------------------------------
 Nuclear Repulsion Energy =  1296.4805847657 hartrees
 There are       66 alpha and       66 beta electrons
 Requested basis set is LANL2DZ
 There are 103 shells and 203 basis functions
 A cutoff of  1.0D-09 yielded   3911 shell pairs
 There are     16854 function pairs (     17265 Cartesian)
 Requested basis set is LANL2DZ
 Compound shells will be simplified
 There are 129 shells and 203 basis functions
 A cutoff of  1.0D-09 yielded   6255 shell pairs
 There are     16781 function pairs (     17192 Cartesian)
 ----------------------------------------------------
       Standard Nuclear Orientation (Angstroms)
    I     Atom         X            Y            Z
 ----------------------------------------------------
    1      C       0.190769     0.111965     1.847366
    2      O      -0.048306     0.587387     0.535779
    3      H      -0.040092     0.851399     2.625470
    4      H      -0.305670    -0.842086     2.068936
    5      H       1.324156    -0.107095     2.011550
    6      Ru      1.932068     0.280701    -0.017303
    7      N       4.121646    -0.155820    -0.142021
    8      C       4.419427    -1.624302     0.041282
    9      C       3.560775    -2.487531    -0.890892
   10      P       1.713171    -2.072682    -0.646624
   11      C       4.923900     0.730661     0.781362
   12      C       4.585104     2.211015     0.563323
   13      P       2.699295     2.488318     0.692900
   14      C       1.723201     0.825498    -1.755917
   15      O       1.553855     1.182894    -2.866290
   16      H       4.216962    -1.865769     1.090742
   17      H       5.485866    -1.813638    -0.141583
   18      H       3.745861    -3.549686    -0.700930
   19      H       3.810131    -2.294736    -1.941176
   20      H       5.997005     0.561253     0.618703
   21      H       4.693638     0.420037     1.806383
   22      H       4.900729     2.536865    -0.435582
   23      H       5.119596     2.832416     1.289437
   24      H       4.361002     0.099945    -1.104303
   25      C       2.355933     4.047252    -0.296038
   26      H       1.295090     4.293971    -0.208216
   27      H       2.586964     3.876964    -1.349938
   28      H       2.955255     4.880413     0.081219
   29      C       2.411176     3.013236     2.477327
   30      H       2.749508     2.228422     3.158062
   31      H       1.342597     3.179741     2.634092
   32      H       2.953822     3.938321     2.692760
   33      C       1.121449    -3.325555     0.630839
   34      H       1.281976    -4.341864     0.259283
   35      H       0.055366    -3.176088     0.816657
   36      H       1.665637    -3.195023     1.569491
   37      C       0.864824    -2.614393    -2.231403
   38      H       1.055133    -3.672907    -2.428548
   39      H      -0.210854    -2.451433    -2.129090
   40      H       1.227775    -2.015177    -3.069383
 ----------------------------------------------------
 Nuclear Repulsion Energy =  1296.4915795677 hartrees
 There are       66 alpha and       66 beta electrons
 Requested basis set is LANL2DZ
 There are 103 shells and 203 basis functions
 A cutoff of  1.0D-09 yielded   3911 shell pairs
 There are     16854 function pairs (     17265 Cartesian)
 Requested basis set is LANL2DZ
 Compound shells will be simplified
 There are 129 shells and 203 basis functions
 A cutoff of  1.0D-09 yielded   6255 shell pairs
 There are     16781 function pairs (     17192 Cartesian)
 ----------------------------------------------------
       Standard Nuclear Orientation (Angstroms)
    I     Atom         X            Y            Z
 ----------------------------------------------------
    1      C       0.190769     0.111965     1.847366
    2      O      -0.048306     0.587387     0.535779
    3      H      -0.040092     0.851399     2.625470
    4      H      -0.305670    -0.842086     2.068936
    5      H       1.324156    -0.107095     2.011550
    6      Ru      1.931068     0.281701    -0.017303
    7      N       4.121646    -0.155820    -0.142021
    8      C       4.419427    -1.624302     0.041282
    9      C       3.560775    -2.487531    -0.890892
   10      P       1.713171    -2.072682    -0.646624
   11      C       4.923900     0.730661     0.781362
   12      C       4.585104     2.211015     0.563323
   13      P       2.699295     2.488318     0.692900
   14      C       1.723201     0.825498    -1.755917
   15      O       1.553855     1.182894    -2.866290
   16      H       4.216962    -1.865769     1.090742
   17      H       5.485866    -1.813638    -0.141583
   18      H       3.745861    -3.549686    -0.700930
   19      H       3.810131    -2.294736    -1.941176
   20      H       5.997005     0.561253     0.618703
   21      H       4.693638     0.420037     1.806383
   22      H       4.900729     2.536865    -0.435582
   23      H       5.119596     2.832416     1.289437
   24      H       4.361002     0.099945    -1.104303
   25      C       2.355933     4.047252    -0.296038
   26      H       1.295090     4.293971    -0.208216
   27      H       2.586964     3.876964    -1.349938
   28      H       2.955255     4.880413     0.081219
   29      C       2.411176     3.013236     2.477327
   30      H       2.749508     2.228422     3.158062
   31      H       1.342597     3.179741     2.634092
   32      H       2.953822     3.938321     2.692760
   33      C       1.121449    -3.325555     0.630839
   34      H       1.281976    -4.341864     0.259283
   35      H       0.055366    -3.176088     0.816657
   36      H       1.665637    -3.195023     1.569491
   37      C       0.864824    -2.614393    -2.231403
   38      H       1.055133    -3.672907    -2.428548
   39      H      -0.210854    -2.451433    -2.129090
   40      H       1.227775    -2.015177    -3.069383
 ----------------------------------------------------
 Nuclear Repulsion Energy =  1296.4856450176 hartrees
 There are       66 alpha and       66 beta electrons
 Requested basis set is LANL2DZ
 There are 103 shells and 203 basis functions
 A cutoff of  1.0D-09 yielded   3911 shell pairs
 There are     16854 function pairs (     17265 Cartesian)
 Requested basis set is LANL2DZ
 Compound shells will be simplified
 There are 129 shells and 203 basis functions
 A cutoff of  1.0D-09 yielded   6255 shell pairs
 There are     16781 function pairs (     17192 Cartesian)
 ----------------------------------------------------
       Standard Nuclear Orientation (Angstroms)
    I     Atom         X            Y            Z
 ----------------------------------------------------
    1      C       0.190769     0.111965     1.847366
    2      O      -0.048306     0.587387     0.535779
    3      H      -0.040092     0.851399     2.625470
    4      H      -0.305670    -0.842086     2.068936
    5      H       1.324156    -0.107095     2.011550
    6      Ru      1.931068     0.280701    -0.016303
    7      N       4.121646    -0.155820    -0.142021
    8      C       4.419427    -1.624302     0.041282
    9      C       3.560775    -2.487531    -0.890892
   10      P       1.713171    -2.072682    -0.646624
   11      C       4.923900     0.730661     0.781362
   12      C       4.585104     2.211015     0.563323
   13      P       2.699295     2.488318     0.692900
   14      C       1.723201     0.825498    -1.755917
   15      O       1.553855     1.182894    -2.866290
   16      H       4.216962    -1.865769     1.090742
   17      H       5.485866    -1.813638    -0.141583
   18      H       3.745861    -3.549686    -0.700930
   19      H       3.810131    -2.294736    -1.941176
   20      H       5.997005     0.561253     0.618703
   21      H       4.693638     0.420037     1.806383
   22      H       4.900729     2.536865    -0.435582
   23      H       5.119596     2.832416     1.289437
   24      H       4.361002     0.099945    -1.104303
   25      C       2.355933     4.047252    -0.296038
   26      H       1.295090     4.293971    -0.208216
   27      H       2.586964     3.876964    -1.349938
   28      H       2.955255     4.880413     0.081219
   29      C       2.411176     3.013236     2.477327
   30      H       2.749508     2.228422     3.158062
   31      H       1.342597     3.179741     2.634092
   32      H       2.953822     3.938321     2.692760
   33      C       1.121449    -3.325555     0.630839
   34      H       1.281976    -4.341864     0.259283
   35      H       0.055366    -3.176088     0.816657
   36      H       1.665637    -3.195023     1.569491
   37      C       0.864824    -2.614393    -2.231403
   38      H       1.055133    -3.672907    -2.428548
   39      H      -0.210854    -2.451433    -2.129090
   40      H       1.227775    -2.015177    -3.069383
 ----------------------------------------------------
 Nuclear Repulsion Energy =  1296.4776945695 hartrees
 There are       66 alpha and       66 beta electrons
 Requested basis set is LANL2DZ
 There are 103 shells and 203 basis functions
 A cutoff of  1.0D-09 yielded   3911 shell pairs
 There are     16854 function pairs (     17265 Cartesian)
 Requested basis set is LANL2DZ
 Compound shells will be simplified
 There are 129 shells and 203 basis functions
 A cutoff of  1.0D-09 yielded   6255 shell pairs
 There are     16781 function pairs (     17192 Cartesian)
 ----------------------------------------------------
       Standard Nuclear Orientation (Angstroms)
    I     Atom         X            Y            Z
 ----------------------------------------------------
    1      C       0.190769     0.111965     1.847366
    2      O      -0.048306     0.587387     0.535779
    3      H      -0.040092     0.851399     2.625470
    4      H      -0.305670    -0.842086     2.068936
    5      H       1.324156    -0.107095     2.011550
    6      Ru      1.931068     0.280701    -0.017303
    7      N       4.122646    -0.155820    -0.142021
    8      C       4.419427    -1.624302     0.041282
    9      C       3.560775    -2.487531    -0.890892
   10      P       1.713171    -2.072682    -0.646624
   11      C       4.923900     0.730661     0.781362
   12      C       4.585104     2.211015     0.563323
   13      P       2.699295     2.488318     0.692900
   14      C       1.723201     0.825498    -1.755917
   15      O       1.553855     1.182894    -2.866290
   16      H       4.216962    -1.865769     1.090742
   17      H       5.485866    -1.813638    -0.141583
   18      H       3.745861    -3.549686    -0.700930
   19      H       3.810131    -2.294736    -1.941176
   20      H       5.997005     0.561253     0.618703
   21      H       4.693638     0.420037     1.806383
   22      H       4.900729     2.536865    -0.435582
   23      H       5.119596     2.832416     1.289437
   24      H       4.361002     0.099945    -1.104303
   25      C       2.355933     4.047252    -0.296038
   26      H       1.295090     4.293971    -0.208216
   27      H       2.586964     3.876964    -1.349938
   28      H       2.955255     4.880413     0.081219
   29      C       2.411176     3.013236     2.477327
   30      H       2.749508     2.228422     3.158062
   31      H       1.342597     3.179741     2.634092
   32      H       2.953822     3.938321     2.692760
   33      C       1.121449    -3.325555     0.630839
   34      H       1.281976    -4.341864     0.259283
   35      H       0.055366    -3.176088     0.816657
   36      H       1.665637    -3.195023     1.569491
   37      C       0.864824    -2.614393    -2.231403
   38      H       1.055133    -3.672907    -2.428548
   39      H      -0.210854    -2.451433    -2.129090
   40      H       1.227775    -2.015177    -3.069383
 ----------------------------------------------------
 Nuclear Repulsion Energy =  1296.4707822264 hartrees
 There are       66 alpha and       66 beta electrons
 Requested basis set is LANL2DZ
 There are 103 shells and 203 basis functions
 A cutoff of  1.0D-09 yielded   3911 shell pairs
 There are     16854 function pairs (     17265 Cartesian)
 Requested basis set is LANL2DZ
 Compound shells will be simplified
 There are 129 shells and 203 basis functions
 A cutoff of  1.0D-09 yielded   6255 shell pairs
 There are     16781 function pairs (     17192 Cartesian)
 ----------------------------------------------------
       Standard Nuclear Orientation (Angstroms)
    I     Atom         X            Y            Z
 ----------------------------------------------------
    1      C       0.190769     0.111965     1.847366
    2      O      -0.048306     0.587387     0.535779
    3      H      -0.040092     0.851399     2.625470
    4      H      -0.305670    -0.842086     2.068936
    5      H       1.324156    -0.107095     2.011550
    6      Ru      1.931068     0.280701    -0.017303
    7      N       4.121646    -0.154820    -0.142021
    8      C       4.419427    -1.624302     0.041282
    9      C       3.560775    -2.487531    -0.890892
   10      P       1.713171    -2.072682    -0.646624
   11      C       4.923900     0.730661     0.781362
   12      C       4.585104     2.211015     0.563323
   13      P       2.699295     2.488318     0.692900
   14      C       1.723201     0.825498    -1.755917
   15      O       1.553855     1.182894    -2.866290
   16      H       4.216962    -1.865769     1.090742
   17      H       5.485866    -1.813638    -0.141583
   18      H       3.745861    -3.549686    -0.700930
   19      H       3.810131    -2.294736    -1.941176
   20      H       5.997005     0.561253     0.618703
   21      H       4.693638     0.420037     1.806383
   22      H       4.900729     2.536865    -0.435582
   23      H       5.119596     2.832416     1.289437
   24      H       4.361002     0.099945    -1.104303
   25      C       2.355933     4.047252    -0.296038
   26      H       1.295090     4.293971    -0.208216
   27      H       2.586964     3.876964    -1.349938
   28      H       2.955255     4.880413     0.081219
   29      C       2.411176     3.013236     2.477327
   30      H       2.749508     2.228422     3.158062
   31      H       1.342597     3.179741     2.634092
   32      H       2.953822     3.938321     2.692760
   33      C       1.121449    -3.325555     0.630839
   34      H       1.281976    -4.341864     0.259283
   35      H       0.055366    -3.176088     0.816657
   36      H       1.665637    -3.195023     1.569491
   37      C       0.864824    -2.614393    -2.231403
   38      H       1.055133    -3.672907    -2.428548
   39      H      -0.210854    -2.451433    -2.129090
   40      H       1.227775    -2.015177    -3.069383
 ----------------------------------------------------
 Nuclear Repulsion Energy =  1296.4862824157 hartrees
 There are       66 alpha and       66 beta electrons
 Requested basis set is LANL2DZ
 There are 103 shells and 203 basis functions
 A cutoff of  1.0D-09 yielded   3911 shell pairs
 There are     16854 function pairs (     17265 Cartesian)
 Requested basis set is LANL2DZ
 Compound shells will be simplified
 There are 129 shells and 203 basis functions
 A cutoff of  1.0D-09 yielded   6255 shell pairs
 There are     16781 function pairs (     17192 Cartesian)
 ----------------------------------------------------
       Standard Nuclear Orientation (Angstroms)
    I     Atom         X            Y            Z
 ----------------------------------------------------
    1      C       0.190769     0.111965     1.847366
    2      O      -0.048306     0.587387     0.535779
    3      H      -0.040092     0.851399     2.625470
    4      H      -0.305670    -0.842086     2.068936
    5      H       1.324156    -0.107095     2.011550
    6      Ru      1.931068     0.280701    -0.017303
    7      N       4.121646    -0.155820    -0.141021
    8      C       4.419427    -1.624302     0.041282
    9      C       3.560775    -2.487531    -0.890892
   10      P       1.713171    -2.072682    -0.646624
   11      C       4.923900     0.730661     0.781362
   12      C       4.585104     2.211015     0.563323
   13      P       2.699295     2.488318     0.692900
   14      C       1.723201     0.825498    -1.755917
   15      O       1.553855     1.182894    -2.866290
   16      H       4.216962    -1.865769     1.090742
   17      H       5.485866    -1.813638    -0.141583
   18      H       3.745861    -3.549686    -0.700930
   19      H       3.810131    -2.294736    -1.941176
   20      H       5.997005     0.561253     0.618703
   21      H       4.693638     0.420037     1.806383
   22      H       4.900729     2.536865    -0.435582
   23      H       5.119596     2.832416     1.289437
   24      H       4.361002     0.099945    -1.104303
   25      C       2.355933     4.047252    -0.296038
   26      H       1.295090     4.293971    -0.208216
   27      H       2.586964     3.876964    -1.349938
   28      H       2.955255     4.880413     0.081219
   29      C       2.411176     3.013236     2.477327
   30      H       2.749508     2.228422     3.158062
   31      H       1.342597     3.179741     2.634092
   32      H       2.953822     3.938321     2.692760
   33      C       1.121449    -3.325555     0.630839
   34      H       1.281976    -4.341864     0.259283
   35      H       0.055366    -3.176088     0.816657
   36      H       1.665637    -3.195023     1.569491
   37      C       0.864824    -2.614393    -2.231403
   38      H       1.055133    -3.672907    -2.428548
   39      H      -0.210854    -2.451433    -2.129090
   40      H       1.227775    -2.015177    -3.069383
 ----------------------------------------------------
 Nuclear Repulsion Energy =  1296.4897100246 hartrees
 There are       66 alpha and       66 beta electrons
 Requested basis set is LANL2DZ
 There are 103 shells and 203 basis functions
 A cutoff of  1.0D-09 yielded   3911 shell pairs
 There are     16854 function pairs (     17265 Cartesian)
 Requested basis set is LANL2DZ
 Compound shells will be simplified
 There are 129 shells and 203 basis functions
 A cutoff of  1.0D-09 yielded   6255 shell pairs
 There are     16781 function pairs (     17192 Cartesian)
 ----------------------------------------------------
       Standard Nuclear Orientation (Angstroms)
    I     Atom         X            Y            Z
 ----------------------------------------------------
    1      C       0.190769     0.111965     1.847366
    2      O      -0.048306     0.587387     0.535779
    3      H      -0.040092     0.851399     2.625470
    4      H      -0.305670    -0.842086     2.068936
    5      H       1.324156    -0.107095     2.011550
    6      Ru      1.931068     0.280701    -0.017303
    7      N       4.121646    -0.155820    -0.142021
    8      C       4.420427    -1.624302     0.041282
    9      C       3.560775    -2.487531    -0.890892
   10      P       1.713171    -2.072682    -0.646624
   11      C       4.923900     0.730661     0.781362
   12      C       4.585104     2.211015     0.563323
   13      P       2.699295     2.488318     0.692900
   14      C       1.723201     0.825498    -1.755917
   15      O       1.553855     1.182894    -2.866290
   16      H       4.216962    -1.865769     1.090742
   17      H       5.485866    -1.813638    -0.141583
   18      H       3.745861    -3.549686    -0.700930
   19      H       3.810131    -2.294736    -1.941176
   20      H       5.997005     0.561253     0.618703
   21      H       4.693638     0.420037     1.806383
   22      H       4.900729     2.536865    -0.435582
   23      H       5.119596     2.832416     1.289437
   24      H       4.361002     0.099945    -1.104303
   25      C       2.355933     4.047252    -0.296038
   26      H       1.295090     4.293971    -0.208216
   27      H       2.586964     3.876964    -1.349938
   28      H       2.955255     4.880413     0.081219
   29      C       2.411176     3.013236     2.477327
   30      H       2.749508     2.228422     3.158062
   31      H       1.342597     3.179741     2.634092
   32      H       2.953822     3.938321     2.692760
   33      C       1.121449    -3.325555     0.630839
   34      H       1.281976    -4.341864     0.259283
   35      H       0.055366    -3.176088     0.816657
   36      H       1.665637    -3.195023     1.569491
   37      C       0.864824    -2.614393    -2.231403
   38      H       1.055133    -3.672907    -2.428548
   39      H      -0.210854    -2.451433    -2.129090
   40      H       1.227775    -2.015177    -3.069383
 ----------------------------------------------------
 Nuclear Repulsion Energy =  1296.4679853110 hartrees
 There are       66 alpha and       66 beta electrons
 Requested basis set is LANL2DZ
 There are 103 shells and 203 basis functions
 A cutoff of  1.0D-09 yielded   3911 shell pairs
 There are     16854 function pairs (     17265 Cartesian)
 Requested basis set is LANL2DZ
 Compound shells will be simplified
 There are 129 shells and 203 basis functions
 A cutoff of  1.0D-09 yielded   6255 shell pairs
 There are     16781 function pairs (     17192 Cartesian)
 ----------------------------------------------------
       Standard Nuclear Orientation (Angstroms)
    I     Atom         X            Y            Z
 ----------------------------------------------------
    1      C       0.190769     0.111965     1.847366
    2      O      -0.048306     0.587387     0.535779
    3      H      -0.040092     0.851399     2.625470
    4      H      -0.305670    -0.842086     2.068936
    5      H       1.324156    -0.107095     2.011550
    6      Ru      1.931068     0.280701    -0.017303
    7      N       4.121646    -0.155820    -0.142021
    8      C       4.419427    -1.623302     0.041282
    9      C       3.560775    -2.487531    -0.890892
   10      P       1.713171    -2.072682    -0.646624
   11      C       4.923900     0.730661     0.781362
   12      C       4.585104     2.211015     0.563323
   13      P       2.699295     2.488318     0.692900
   14      C       1.723201     0.825498    -1.755917
   15      O       1.553855     1.182894    -2.866290
   16      H       4.216962    -1.865769     1.090742
   17      H       5.485866    -1.813638    -0.141583
   18      H       3.745861    -3.549686    -0.700930
   19      H       3.810131    -2.294736    -1.941176
   20      H       5.997005     0.561253     0.618703
   21      H       4.693638     0.420037     1.806383
   22      H       4.900729     2.536865    -0.435582
   23      H       5.119596     2.832416     1.289437
   24      H       4.361002     0.099945    -1.104303
   25      C       2.355933     4.047252    -0.296038
   26      H       1.295090     4.293971    -0.208216
   27      H       2.586964     3.876964    -1.349938
   28      H       2.955255     4.880413     0.081219
   29      C       2.411176     3.013236     2.477327
   30      H       2.749508     2.228422     3.158062
   31      H       1.342597     3.179741     2.634092
   32      H       2.953822     3.938321     2.692760
   33      C       1.121449    -3.325555     0.630839
   34      H       1.281976    -4.341864     0.259283
   35      H       0.055366    -3.176088     0.816657
   36      H       1.665637    -3.195023     1.569491
   37      C       0.864824    -2.614393    -2.231403
   38      H       1.055133    -3.672907    -2.428548
   39      H      -0.210854    -2.451433    -2.129090
   40      H       1.227775    -2.015177    -3.069383
 ----------------------------------------------------
 Nuclear Repulsion Energy =  1296.4994131257 hartrees
 There are       66 alpha and       66 beta electrons
 Requested basis set is LANL2DZ
 There are 103 shells and 203 basis functions
 A cutoff of  1.0D-09 yielded   3911 shell pairs
 There are     16854 function pairs (     17265 Cartesian)
 Requested basis set is LANL2DZ
 Compound shells will be simplified
 There are 129 shells and 203 basis functions
 A cutoff of  1.0D-09 yielded   6255 shell pairs
 There are     16781 function pairs (     17192 Cartesian)
 ----------------------------------------------------
       Standard Nuclear Orientation (Angstroms)
    I     Atom         X            Y            Z
 ----------------------------------------------------
    1      C       0.190769     0.111965     1.847366
    2      O      -0.048306     0.587387     0.535779
    3      H      -0.040092     0.851399     2.625470
    4      H      -0.305670    -0.842086     2.068936
    5      H       1.324156    -0.107095     2.011550
    6      Ru      1.931068     0.280701    -0.017303
    7      N       4.121646    -0.155820    -0.142021
    8      C       4.419427    -1.624302     0.042282
    9      C       3.560775    -2.487531    -0.890892
   10      P       1.713171    -2.072682    -0.646624
   11      C       4.923900     0.730661     0.781362
   12      C       4.585104     2.211015     0.563323
   13      P       2.699295     2.488318     0.692900
   14      C       1.723201     0.825498    -1.755917
   15      O       1.553855     1.182894    -2.866290
   16      H       4.216962    -1.865769     1.090742
   17      H       5.485866    -1.813638    -0.141583
   18      H       3.745861    -3.549686    -0.700930
   19      H       3.810131    -2.294736    -1.941176
   20      H       5.997005     0.561253     0.618703
   21      H       4.693638     0.420037     1.806383
   22      H       4.900729     2.536865    -0.435582
   23      H       5.119596     2.832416     1.289437
   24      H       4.361002     0.099945    -1.104303
   25      C       2.355933     4.047252    -0.296038
   26      H       1.295090     4.293971    -0.208216
   27      H       2.586964     3.876964    -1.349938
   28      H       2.955255     4.880413     0.081219
   29      C       2.411176     3.013236     2.477327
   30      H       2.749508     2.228422     3.158062
   31      H       1.342597     3.179741     2.634092
   32      H       2.953822     3.938321     2.692760
   33      C       1.121449    -3.325555     0.630839
   34      H       1.281976    -4.341864     0.259283
   35      H       0.055366    -3.176088     0.816657
   36      H       1.665637    -3.195023     1.569491
   37      C       0.864824    -2.614393    -2.231403
   38      H       1.055133    -3.672907    -2.428548
   39      H      -0.210854    -2.451433    -2.129090
   40      H       1.227775    -2.015177    -3.069383
 ----------------------------------------------------
 Nuclear Repulsion Energy =  1296.4798865984 hartrees
 There are       66 alpha and       66 beta electrons
 Requested basis set is LANL2DZ
 There are 103 shells and 203 basis functions
 A cutoff of  1.0D-09 yielded   3911 shell pairs
 There are     16854 function pairs (     17265 Cartesian)
 Requested basis set is LANL2DZ
 Compound shells will be simplified
 There are 129 shells and 203 basis functions
 A cutoff of  1.0D-09 yielded   6255 shell pairs
 There are     16781 function pairs (     17192 Cartesian)
 ----------------------------------------------------
       Standard Nuclear Orientation (Angstroms)
    I     Atom         X            Y            Z
 ----------------------------------------------------
    1      C       0.190769     0.111965     1.847366
    2      O      -0.048306     0.587387     0.535779
    3      H      -0.040092     0.851399     2.625470
    4      H      -0.305670    -0.842086     2.068936
    5      H       1.324156    -0.107095     2.011550
    6      Ru      1.931068     0.280701    -0.017303
    7      N       4.121646    -0.155820    -0.142021
    8      C       4.419427    -1.624302     0.041282
    9      C       3.561775    -2.487531    -0.890892
   10      P       1.713171    -2.072682    -0.646624
   11      C       4.923900     0.730661     0.781362
   12      C       4.585104     2.211015     0.563323
   13      P       2.699295     2.488318     0.692900
   14      C       1.723201     0.825498    -1.755917
   15      O       1.553855     1.182894    -2.866290
   16      H       4.216962    -1.865769     1.090742
   17      H       5.485866    -1.813638    -0.141583
   18      H       3.745861    -3.549686    -0.700930
   19      H       3.810131    -2.294736    -1.941176
   20      H       5.997005     0.561253     0.618703
   21      H       4.693638     0.420037     1.806383
   22      H       4.900729     2.536865    -0.435582
   23      H       5.119596     2.832416     1.289437
   24      H       4.361002     0.099945    -1.104303
   25      C       2.355933     4.047252    -0.296038
   26      H       1.295090     4.293971    -0.208216
   27      H       2.586964     3.876964    -1.349938
   28      H       2.955255     4.880413     0.081219
   29      C       2.411176     3.013236     2.477327
   30      H       2.749508     2.228422     3.158062
   31      H       1.342597     3.179741     2.634092
   32      H       2.953822     3.938321     2.692760
[...]
    -0.00007772     -0.00009620     -0.00004817
     0.00003450      0.00004579     -0.00001176
     0.00009305     -0.00022139      0.00018005
    -0.00026051      0.00005784      0.00003573
    -0.00023731     -0.00033415     -0.00005947
    -0.00135597      0.00005642     -0.00059875
     0.00141936      0.00299589     -0.00114426
     0.01188204     -0.00088112     -0.00247738
     0.00580439      0.00150830      0.00842432
     0.00076497      0.00048400     -0.00052178
     0.00062908     -0.00204485     -0.00017407
    -0.00532739      0.00131788      0.00030288
    -0.00355728     -0.00427176      0.00491261
vibration 106
     0.00004308      0.00103379      0.00070564
     0.00000670     -0.00000630     -0.00004747
     0.00387035     -0.00851743     -0.00906517
    -0.00260702     -0.00468052      0.00054151
    -0.00145595      0.00056151      0.00007557
    -0.00000904      0.00000906      0.00001318
     0.00001530      0.00002117     -0.00002349
    -0.00002066     -0.00000765      0.00004965
    -0.00000165     -0.00003040      0.00002779
    -0.00000198      0.00000641     -0.00000358
    -0.00027272     -0.00012503      0.00053897
     0.00009059      0.00006984     -0.00024643
    -0.00019247     -0.00030204      0.00005842
     0.00000334     -0.00004003      0.00001079
    -0.00000197      0.00001483     -0.00002067
     0.00010097      0.00015902     -0.00051295
     0.00016960     -0.00005500     -0.00002518
    -0.00005099      0.00027597     -0.00004245
     0.00005546      0.00004992     -0.00029042
     0.00185484     -0.00023986     -0.00029465
     0.00094630      0.00213861     -0.00581289
     0.00024515     -0.00017550      0.00108362
     0.00177681      0.00005606      0.00052897
    -0.00010571     -0.00021407      0.00024374
     0.00155863      0.00088285      0.00079756
    -0.01136913      0.00264384      0.00119803
     0.00226262     -0.00008249     -0.00664551
    -0.00804011     -0.00961390     -0.00696751
    -0.04599725     -0.07820197      0.01967628
    -0.18322881      0.38065790     -0.33410271
     0.35737742     -0.07903422     -0.04639342
     0.37591799      0.63341766      0.14803816
     0.00002030     -0.00037879     -0.00039128
    -0.00067810      0.00420829      0.00146627
    -0.00147907      0.00014676      0.00017088
     0.00184510      0.00040377      0.00309064
    -0.00027438      0.00048154     -0.00003886
     0.00075435     -0.00424588     -0.00074910
     0.00327373     -0.00038073     -0.00035652
    -0.00080634     -0.00106469      0.00161933
vibration 107
     0.00040151      0.00127779     -0.00000902
    -0.00001192     -0.00003178      0.00003191
     0.00106999     -0.00373044     -0.00320123
    -0.00732700     -0.01189715      0.00294528
     0.00123995     -0.00008478      0.00017959
     0.00000971      0.00001043     -0.00000926
    -0.00000533      0.00000791      0.00003135
     0.00020130      0.00006703     -0.00038194
    -0.00006966      0.00022371      0.00020059
     0.00002990     -0.00027357     -0.00029483
     0.00002539      0.00001494     -0.00004854
    -0.00000856     -0.00000491     -0.00001632
     0.00000153      0.00000267      0.00000881
    -0.00002483     -0.00001931     -0.00005252
     0.00001460      0.00000073      0.00003844
    -0.00108073     -0.00083525      0.00387244
    -0.00113312      0.00028087      0.00025524
    -0.00040917     -0.00254760      0.00068916
    -0.00022365      0.00073089     -0.00058410
    -0.00021214      0.00001994      0.00002664
    -0.00011814     -0.00014544      0.00059854
    -0.00005178     -0.00006674      0.00018812
     0.00008214      0.00011804      0.00013547
     0.00003292     -0.00006913     -0.00024657
     0.00029860      0.00020252      0.00024441
    -0.00214244      0.00055908      0.00026370
     0.00050683     -0.00029368     -0.00186012
    -0.00193200     -0.00268850     -0.00120854
     0.00043765      0.00051684     -0.00011914
     0.00117321     -0.00228471      0.00202678
    -0.00369141      0.00076527      0.00049343
    -0.00270546     -0.00456608     -0.00099105
     0.01699014     -0.06355067     -0.06192883
    -0.10965303      0.67097657      0.24431722
    -0.36959227      0.03811663      0.04647738
     0.27718348      0.05373567      0.44981943
    -0.01122762      0.01696039     -0.00060956
     0.02691327     -0.15278657     -0.02598455
     0.13204507     -0.01626453     -0.01413575
    -0.02552267     -0.03177986      0.05090101
vibration 108
     0.00007105      0.00025801      0.00002985
    -0.00000615     -0.00000989      0.00001250
     0.00024366     -0.00094138     -0.00091063
    -0.00132133     -0.00213667      0.00051371
     0.00021975     -0.00002607     -0.00005198
     0.00000342      0.00000417     -0.00000074
     0.00000307      0.00000692      0.00000359
     0.00000637      0.00003726     -0.00009839
    -0.00012730      0.00007383     -0.00023901
     0.00017633     -0.00035733      0.00002458
     0.00000924      0.00000240      0.00000361
    -0.00000221     -0.00000037     -0.00002158
     0.00000734      0.00001214      0.00000802
     0.00005644     -0.00001432      0.00012221
    -0.00002646      0.00002038     -0.00007881
    -0.00020843     -0.00013202      0.00096847
    -0.00063715     -0.00005335      0.00000682
    -0.00179347      0.00100870     -0.00067354
    -0.00062685     -0.00073344      0.00121662
    -0.00011387      0.00000501     -0.00000069
     0.00001925      0.00001752     -0.00007590
    -0.00004992     -0.00005158      0.00017724
     0.00002701      0.00003059      0.00004909
     0.00000188     -0.00003939      0.00005856
     0.00056524      0.00035114      0.00041269
    -0.00419466      0.00108717      0.00051390
     0.00090560     -0.00046910     -0.00320351
    -0.00343139     -0.00475097     -0.00219476
    -0.00022331     -0.00031811      0.00007586
    -0.00068832      0.00142066     -0.00125567
     0.00179664     -0.00036640     -0.00024059
     0.00161316      0.00275364      0.00064812
     0.00023478     -0.01366999     -0.01506415
    -0.02447417      0.14730148      0.05091726
    -0.05273066      0.00363977      0.00541007
     0.07353302      0.01627987      0.12190138
     0.04464858     -0.07858234      0.00706113
    -0.12357738      0.69985227      0.12857577
    -0.54129412      0.06295316      0.05819757
     0.13261683      0.17706068     -0.26857795
vibration 109
     0.00001201      0.00001627     -0.00002180
     0.00000204     -0.00000386     -0.00001116
    -0.00008705      0.00016049      0.00019833
    -0.00010007     -0.00028644      0.00011019
     0.00003490     -0.00004243      0.00007110
    -0.00000218      0.00000334      0.00000037
    -0.00000124      0.00000447     -0.00000032
    -0.00000122      0.00001027     -0.00000615
     0.00000092     -0.00000617      0.00001385
     0.00000444      0.00000783      0.00000393
     0.00001382     -0.00001377      0.00007338
     0.00014467      0.00002007      0.00057356
    -0.00023520     -0.00018874     -0.00022774
    -0.00004186      0.00010345     -0.00012592
     0.00002613     -0.00004682      0.00008951
    -0.00003387     -0.00004188      0.00016181
     0.00006265     -0.00002797     -0.00000365
    -0.00002061      0.00002158     -0.00001487
     0.00002594      0.00001781     -0.00010529
     0.00038090     -0.00022370     -0.00007681
     0.00007846      0.00029918     -0.00059919
     0.00090796      0.00040628     -0.00333625
    -0.00008284     -0.00217420     -0.00122591
    -0.00001327      0.00001502     -0.00005050
    -0.06391870     -0.04289554     -0.05180141
     0.46290999     -0.12096537     -0.05636857
    -0.11234792      0.06228949      0.41320242
     0.41293764      0.57469169      0.26109286
     0.00326559     -0.00358763      0.00170934
    -0.01241595      0.03155706     -0.02597044
    -0.03122978      0.00384836      0.00463623
     0.00649686      0.00814383      0.00415659
     0.00008367     -0.00040827     -0.00041294
    -0.00070903      0.00437475      0.00156162
    -0.00219897      0.00021262      0.00027446
     0.00189523      0.00039189      0.00311147
     0.00027283     -0.00059663      0.00009037
    -0.00091548      0.00520203      0.00099998
    -0.00341112      0.00037667      0.00036398
     0.00112801      0.00159777     -0.00234788
vibration 110
    -0.00021850      0.00067756      0.00043509
     0.00001135     -0.00000251      0.00003306
     0.00236886     -0.00608224     -0.00650106
    -0.00077250     -0.00174436      0.00031017
     0.00145487      0.00033821      0.00031136
     0.00000237     -0.00000557      0.00000393
    -0.00001025     -0.00000461      0.00004511
     0.00000257      0.00000544     -0.00002506
    -0.00000712     -0.00000204      0.00001510
    -0.00000809      0.00000218      0.00000351
     0.00036701      0.00022090     -0.00081968
    -0.00020162     -0.00062450     -0.00135251
    -0.00030285      0.00019706     -0.00003506
     0.00000159      0.00002306     -0.00000944
    -0.00000452     -0.00001144      0.00000584
    -0.00008661     -0.00013670      0.00033266
     0.00006342     -0.00001523     -0.00002334
     0.00000399     -0.00004343      0.00000924
     0.00003208      0.00002574     -0.00011783
    -0.00207413      0.00019352      0.00035650
    -0.00177177     -0.00344250      0.00907962
    -0.00033486     -0.00144168      0.00420701
     0.00747390      0.00805014      0.00848643
     0.00017760      0.00028757     -0.00028780
    -0.00293956     -0.00221451     -0.00289396
     0.02269663     -0.00605093     -0.00212754
    -0.00658869      0.00358658      0.02772988
     0.01934978      0.02721448      0.01236047
    -0.07941045      0.04073934     -0.02398381
     0.18102232     -0.46038714      0.39195022
     0.74729802     -0.10779265     -0.11433734
     0.02033138      0.07996769      0.00828434
     0.00015312     -0.00010226     -0.00003458
    -0.00014233      0.00105475      0.00042291
    -0.00164855      0.00023154      0.00028154
    -0.00005752     -0.00005090     -0.00015756
    -0.00000800      0.00001545      0.00000104
     0.00002020     -0.00019405     -0.00004037
     0.00006292     -0.00000177      0.00000609
    -0.00006673     -0.00009041      0.00013319
vibration 111
     0.00018779      0.00029181     -0.00001567
     0.00000296      0.00000110     -0.00000641
     0.00014077     -0.00044162     -0.00044670
    -0.00192573     -0.00346812      0.00077265
    -0.00059990      0.00059464      0.00013273
     0.00000105     -0.00000434     -0.00000660
     0.00000515      0.00001577     -0.00002084
    -0.00012767     -0.00007144      0.00036950
     0.00004151     -0.00101922      0.00117558
    -0.00013473     -0.00016798      0.00020282
     0.00000552      0.00000542     -0.00000270
    -0.00000519      0.00000706     -0.00001526
     0.00000448     -0.00000063     -0.00000261
     0.00002220     -0.00001838      0.00003559
    -0.00001834     -0.00001123     -0.00004041
     0.00085043      0.00064869     -0.00458773
     0.00162202     -0.00005377     -0.00015589
    -0.00219022      0.01028262     -0.00159353
     0.00262122      0.00202207     -0.00945297
    -0.00009304      0.00001665      0.00001510
     0.00001220     -0.00002009     -0.00006978
    -0.00003129      0.00000644      0.00003595
     0.00001661      0.00002093      0.00001913
     0.00002739      0.00015355      0.00025700
     0.00145631     -0.00048146     -0.00130361
    -0.01487485      0.00334869      0.00098901
    -0.00300282      0.00250067      0.01477546
     0.00041785     -0.00002541     -0.00030571
     0.00003358     -0.00005301      0.00001976
    -0.00017116      0.00041092     -0.00033468
    -0.00036016      0.00003167      0.00005745
     0.00018211      0.00028077      0.00009363
     0.03629373     -0.00269433      0.01402669
     0.00510157      0.02544063      0.01316473
    -0.30475698      0.04618911      0.05680777
    -0.13429880     -0.03736277     -0.24271787
    -0.06150201     -0.03296376      0.04627027
    -0.03506576      0.09743972      0.03029703
     0.54193046     -0.09469629     -0.04466369
     0.22944890      0.39276164     -0.53861744
vibration 112
    -0.00010896     -0.00023699     -0.00001616
    -0.00000683      0.00000371      0.00000489
    -0.00025915      0.00066116      0.00069516
     0.00132110      0.00238118     -0.00053606
     0.00027733     -0.00029985     -0.00006145
    -0.00000354     -0.00000267      0.00000466
     0.00000088      0.00000125      0.00000848
     0.00005879      0.00002208     -0.00012453
     0.00004465      0.00024832     -0.00010895
    -0.00009404     -0.00001218     -0.00001475
    -0.00002139      0.00001728     -0.00005649
    -0.00014996      0.00019398     -0.00083073
     0.00025933     -0.00017366     -0.00020432
    -0.00000141      0.00001692     -0.00003737
     0.00000980     -0.00002324      0.00002384
    -0.00036102     -0.00026129      0.00136485
    -0.00028758      0.00008453      0.00008176
     0.00056909     -0.00262002      0.00030693
     0.00015013     -0.00014920      0.00050327
    -0.00068940      0.00046271      0.00013696
    -0.00016446     -0.00063019      0.00108520
    -0.00285452     -0.00145215      0.00613772
     0.00171863      0.00195689      0.00244730
     0.00000695      0.00009959     -0.00002709
     0.06358988     -0.02275948     -0.05982945
    -0.65236204      0.14628459      0.04244428
    -0.13863937      0.11381339      0.67733862
     0.03015089      0.01432807     -0.00576819
     0.00056005     -0.00009915      0.00014656
     0.00001475     -0.00015863      0.00134906
    -0.00686263      0.00077053      0.00130940
     0.00031533     -0.00027967      0.00043094
    -0.01842257      0.00190648     -0.00650230
    -0.00192798     -0.01710318     -0.00854952
     0.15789334     -0.02375927     -0.02963274
     0.06425458      0.01841027      0.11582873
    -0.00562768     -0.00199332      0.00380329
    -0.00190446      0.00190179      0.00145429
     0.05175609     -0.00878245     -0.00426156
     0.01776844      0.03070756     -0.04164180
vibration 113
    -0.00043859     -0.00076148      0.00000296
     0.00000670     -0.00000518      0.00001534
    -0.00047121      0.00161538      0.00157411
     0.00477086      0.00841170     -0.00195051
     0.00135077     -0.00119886     -0.00041559
     0.00000832      0.00000468     -0.00000114
    -0.00000885     -0.00001703      0.00003449
     0.00024966      0.00008771     -0.00057345
     0.00018062      0.00093979     -0.00029839
    -0.00044892     -0.00007701     -0.00003075
     0.00001711      0.00000417     -0.00001848
     0.00003058     -0.00005123      0.00020224
    -0.00006810      0.00004039      0.00005228
     0.00000947     -0.00002719      0.00001058
    -0.00000830      0.00001159     -0.00001500
    -0.00158135     -0.00109830      0.00590923
    -0.00098392      0.00036048      0.00032700
     0.00220775     -0.01001691      0.00108808
     0.00113064     -0.00031098      0.00036640
     0.00017628     -0.00010624     -0.00003995
    -0.00006066      0.00006239      0.00016137
     0.00069836      0.00035643     -0.00150014
    -0.00037625     -0.00044013     -0.00054641
     0.00009637     -0.00011009     -0.00027011
    -0.01463154      0.00525299      0.01380359
     0.15018840     -0.03368396     -0.00974716
     0.03196380     -0.02622830     -0.15611593
    -0.00700805     -0.00336077      0.00128301
    -0.00020476      0.00014590     -0.00008200
     0.00042526     -0.00098363      0.00057211
     0.00238577     -0.00028133     -0.00043696
    -0.00032790     -0.00030018     -0.00015837
    -0.07643435      0.00795254     -0.02693666
    -0.00796081     -0.07153929     -0.03562140
     0.65559343     -0.09859055     -0.12310423
     0.26617721      0.07634789      0.47966851
    -0.03029596     -0.01197555      0.02100153
    -0.01187156      0.01875375      0.00934891
     0.27597590     -0.04715805     -0.02265539
     0.09958195      0.17162093     -0.23344755
vibration 114
    -0.00007391      0.00003455     -0.00005354
    -0.00001156     -0.00000645      0.00002962
    -0.00004037      0.00008811      0.00012265
    -0.00009089     -0.00013140      0.00005148
     0.00053173     -0.00008457     -0.00003165
    -0.00005095      0.00000552     -0.00000477
     0.01430277      0.01829944     -0.06744622
     0.00230907     -0.00023353     -0.00316841
    -0.00001590      0.00019660      0.00032727
     0.00001691      0.00005026     -0.00000252
     0.00257959      0.00102396     -0.00286125
    -0.00011850     -0.00034322      0.00013862
     0.00000666     -0.00001429     -0.00001535
    -0.00001869     -0.00013556      0.00057297
     0.00007744      0.00003631     -0.00018313
    -0.00623515     -0.00839505      0.02737093
    -0.01142650      0.00081670      0.00259485
    -0.00002265     -0.00070983      0.00068854
     0.00190569      0.00123674     -0.00022202
    -0.01110608      0.00251484      0.00284609
    -0.00638247     -0.00625307      0.02821034
     0.00075779     -0.00178050     -0.00125270
     0.00018107      0.00029947      0.00111256
    -0.21852174     -0.25061428      0.93930671
    -0.00000382      0.00000678      0.00000235
     0.00006199      0.00002051     -0.00004853
    -0.00002106      0.00001926     -0.00000879
     0.00001069      0.00007748     -0.00001589
    -0.00000768      0.00002771     -0.00001495
     0.00001992     -0.00006935      0.00003642
    -0.00003202      0.00001475      0.00002552
    -0.00002054     -0.00000331      0.00007997
    -0.00001816     -0.00000859     -0.00001592
    -0.00001915     -0.00003658      0.00007457
    -0.00000714     -0.00001432      0.00001801
     0.00002083      0.00001262      0.00005154
    -0.00000505     -0.00000430      0.00000019
    -0.00001662     -0.00006931     -0.00004201
     0.00005042     -0.00001630     -0.00004807
    -0.00003498     -0.00003775      0.00006230
[INT]
    0.014418
    0.870311
    0.876725
    1.655853
    0.413155
    0.335615
    0.285998
    0.330832
    1.239198
    0.567428
    2.137958
    2.360277
    2.592457
    1.112352
    1.309214
    1.652120
    0.534227
    1.598007
    0.932263
    3.066569
    1.995013
    2.276077
    4.119286
    0.345079
    1.089995
    2.383912
    1.662215
    1.336408
    4.172412
   14.132541
    9.447688
    0.031095
   16.451457
   23.934716
   10.994361
    6.086051
    1.674774
    0.949362
    8.251131
    6.141433
    5.297427
   13.338827
    7.388114
    8.143007
   10.025819
    1.554357
    1.011923
    0.562262
    9.392902
    9.613858
  147.653156
    4.131948
   39.172519
   69.760867
   72.775589
   24.762134
    3.198381
   33.634574
   11.777695
    0.033659
   29.752647
    1.359054
   14.568128
    6.638637
    2.325575
    1.179537
    7.448804
    0.694299
    1.192509
   26.780549
    0.855085
    3.163652
    2.411470
    0.290847
   30.445745
    2.681209
    0.961740
   20.192814
    7.090080
    2.233753
   67.611538
   17.206625
    6.917187
   11.049724
   12.208125
    3.419791
    3.362582
    0.900143
   20.487192
  559.984121
  163.838390
   63.467637
    6.476715
   35.291321
    2.276254
    2.410355
    4.399175
    2.611013
    3.661407
    3.277312
   36.875443
    4.431940
   18.093046
    3.244848
    2.742547
    1.473570
    1.087409
    1.499419
    1.079824
    0.884562
    0.789816
    0.486630
    0.359428
    6.381627

======= END OF MOLDEN-FORMATTED INPUT FILE =======


        *************************************************************
        *                                                           *
        *  Thank you very much for using Q-Chem.  Have a nice day.  *
        *                                                           *
        *************************************************************


0 sent ACK to 0 
now end server 0 ... 
